 Entering Gaussian System, Link 0=g09
 Input=FREQ.inp
 Output=FREQ.log
 Initial command:
 /applis/g09/l1.exe "/tmp/Gau-20268.inp" -scrdir="/tmp/"
 Entering Link 1 = /applis/g09/l1.exe PID=     20270.
  
 Copyright (c) 1988,1990,1992,1993,1995,1998,2003,2009,2013,
            Gaussian, Inc.  All Rights Reserved.
  
 This is part of the Gaussian(R) 09 program.  It is based on
 the Gaussian(R) 03 system (copyright 2003, Gaussian, Inc.),
 the Gaussian(R) 98 system (copyright 1998, Gaussian, Inc.),
 the Gaussian(R) 94 system (copyright 1995, Gaussian, Inc.),
 the Gaussian 92(TM) system (copyright 1992, Gaussian, Inc.),
 the Gaussian 90(TM) system (copyright 1990, Gaussian, Inc.),
 the Gaussian 88(TM) system (copyright 1988, Gaussian, Inc.),
 the Gaussian 86(TM) system (copyright 1986, Carnegie Mellon
 University), and the Gaussian 82(TM) system (copyright 1983,
 Carnegie Mellon University). Gaussian is a federally registered
 trademark of Gaussian, Inc.
  
 This software contains proprietary and confidential information,
 including trade secrets, belonging to Gaussian, Inc.
  
 This software is provided under written license and may be
 used, copied, transmitted, or stored only in accord with that
 written license.
  
 The following legend is applicable only to US Government
 contracts under FAR:
  
                    RESTRICTED RIGHTS LEGEND
  
 Use, reproduction and disclosure by the US Government is
 subject to restrictions as set forth in subparagraphs (a)
 and (c) of the Commercial Computer Software - Restricted
 Rights clause in FAR 52.227-19.
  
 Gaussian, Inc.
 340 Quinnipiac St., Bldg. 40, Wallingford CT 06492
  
  
 ---------------------------------------------------------------
 Warning -- This program may not be used in any manner that
 competes with the business of Gaussian, Inc. or will provide
 assistance to any competitor of Gaussian, Inc.  The licensee
 of this program is prohibited from giving any competitor of
 Gaussian, Inc. access to this program.  By using this program,
 the user acknowledges that Gaussian, Inc. is engaged in the
 business of creating and licensing software in the field of
 computational chemistry and represents and warrants to the
 licensee that it is not a competitor of Gaussian, Inc. and that
 it will not use this program in any manner prohibited above.
 ---------------------------------------------------------------
  

 Cite this work as:
 Gaussian 09, Revision D.01,
 M. J. Frisch, G. W. Trucks, H. B. Schlegel, G. E. Scuseria, 
 M. A. Robb, J. R. Cheeseman, G. Scalmani, V. Barone, B. Mennucci, 
 G. A. Petersson, H. Nakatsuji, M. Caricato, X. Li, H. P. Hratchian, 
 A. F. Izmaylov, J. Bloino, G. Zheng, J. L. Sonnenberg, M. Hada, 
 M. Ehara, K. Toyota, R. Fukuda, J. Hasegawa, M. Ishida, T. Nakajima, 
 Y. Honda, O. Kitao, H. Nakai, T. Vreven, J. A. Montgomery, Jr., 
 J. E. Peralta, F. Ogliaro, M. Bearpark, J. J. Heyd, E. Brothers, 
 K. N. Kudin, V. N. Staroverov, T. Keith, R. Kobayashi, J. Normand, 
 K. Raghavachari, A. Rendell, J. C. Burant, S. S. Iyengar, J. Tomasi, 
 M. Cossi, N. Rega, J. M. Millam, M. Klene, J. E. Knox, J. B. Cross, 
 V. Bakken, C. Adamo, J. Jaramillo, R. Gomperts, R. E. Stratmann, 
 O. Yazyev, A. J. Austin, R. Cammi, C. Pomelli, J. W. Ochterski, 
 R. L. Martin, K. Morokuma, V. G. Zakrzewski, G. A. Voth, 
 P. Salvador, J. J. Dannenberg, S. Dapprich, A. D. Daniels, 
 O. Farkas, J. B. Foresman, J. V. Ortiz, J. Cioslowski, 
 and D. J. Fox, Gaussian, Inc., Wallingford CT, 2013.
 
 ******************************************
 Gaussian 09:  EM64L-G09RevD.01 24-Apr-2013
                18-Oct-2021 
 ******************************************
 %Chk=FREQ
 %NProcShared=20
 Will use up to   20 processors via shared memory.
 %mem=12GB
 ---------------------------------------------------------
 #p Freq PBE1PBE chkbasis guess=read geom=allcheck Gfprint
 ---------------------------------------------------------
 1/10=4,29=7,30=1,38=1/1,3;
 2/12=2,40=1/2;
 3/5=7,6=2,11=2,14=-4,16=1,24=100,25=1,30=1,67=1,71=2,74=-13,116=-2,140=1/1,2,3;
 4/5=1/1;
 5/5=2,38=6,98=1/2;
 8/6=4,10=90,11=11/1;
 11/6=1,8=1,9=11,15=111,16=1/1,2,10;
 10/6=1/2;
 6/7=2,8=2,9=2,10=2,18=1,28=1/1;
 7/8=1,10=1,25=1/1,2,3,16;
 1/10=4,30=1/3;
 99//99;
 Leave Link    1 at Mon Oct 18 22:51:12 2021, MaxMem=  1610612736 cpu:         1.2
 (Enter /applis/g09/l101.exe)
 Structure from the checkpoint file:  "FREQ.chk"
 ---------------------------------
 Helicene M Fondamental state form
 ---------------------------------
 Charge =  0 Multiplicity = 1
 Redundant internal coordinates found in file.
 C,0,6.2183983615,-5.2164654249,-1.3412321447
 C,0,5.5258975886,-5.779861513,-2.43470765
 C,0,4.7345040755,-6.9292639758,-2.175517332
 C,0,4.5748883679,-7.394775216,-0.8545754934
 C,0,5.2184008734,-6.7872188326,0.1901189179
 C,0,6.0696707015,-5.7032623766,-0.0670826903
 C,0,4.1656199296,-7.6417886868,-3.2601696127
 C,0,4.4208651907,-7.2733089371,-4.5396948071
 C,0,5.1837924966,-6.1129164229,-4.8431483103
 C,0,5.6584732255,-5.3064798782,-3.7972574613
 C,0,5.4468053434,-5.7297850223,-6.2097930625
 C,0,6.4174376006,-4.7521267283,-6.4773611878
 C,0,7.1039543712,-4.1404078349,-5.3600119267
 C,0,6.4245390719,-4.1254558272,-4.1324625798
 C,0,8.4213890646,-3.5423823345,-5.3829811225
 C,0,8.72021202,-2.5498163106,-4.4369061817
 C,0,7.7062290525,-2.1390484235,-3.495317242
 C,0,6.5596169267,-2.9306924174,-3.3274134704
 C,0,7.8665721786,-0.965982399,-2.7086010376
 C,0,6.9219285728,-0.5713881023,-1.8197587381
 C,0,5.6932036146,-1.2690461614,-1.7132270291
 C,0,5.4805178099,-2.4307862233,-2.5004318616
 C,0,4.663555961,-0.7774921976,-0.8854515802
 C,0,3.4302653668,-1.3718355724,-0.8652594743
 C,0,3.1848428791,-2.4687846874,-1.7032427295
 C,0,4.1804242514,-2.9806560289,-2.4965791897
 H,0,6.6251431567,-5.2475687391,0.7454272044
 H,0,6.8993276116,-4.3932829161,-1.5052210362
 H,0,3.9492719777,-3.8135090768,-3.1455201958
 H,0,2.1966526923,-2.9147557134,-1.7343667041
 H,0,2.6418925454,-0.9819725459,-0.2306636533
 H,0,4.8629876414,0.1014899696,-0.2801504504
 H,0,7.0716594472,0.3193605544,-1.2178671642
 H,0,8.7564320787,-0.361835011,-2.823555243
 C,0,9.4884548562,-4.057021559,-6.2164679629
 C,0,6.5619712106,-4.2639672892,-7.8334430257
 H,0,4.0401557717,-7.8889244954,-5.3435254167
 H,0,3.5677201442,-8.5231928865,-3.0509624839
 H,0,3.9474053819,-8.2646138124,-0.6859983607
 H,0,5.0953485366,-7.1570962832,1.2021880393
 C,0,5.8814388444,-4.9312317234,-8.8852311684
 C,0,6.0247725139,-4.4857421298,-10.2149211281
 C,0,6.7717499229,-3.3770949636,-10.5108698623
 C,0,7.3783975652,-2.6618352944,-9.4686791323
 C,0,7.2748416444,-3.0930047006,-8.1702448177
 C,0,5.0054817593,-6.001989933,-8.5786395772
 H,0,5.5075153959,-5.028831675,-10.9999480743
 H,0,6.8701101226,-3.0375042047,-11.5361667423
 H,0,7.9287051236,-1.7527520501,-9.6857413212
 H,0,7.7375011719,-2.5047037855,-7.3904730488
 C,0,4.7652564584,-6.3520904691,-7.2910566986
 H,0,4.485020796,-6.500807405,-9.390075057
 H,0,4.0274476839,-7.116990924,-7.0895113332
 C,0,10.7476637419,-3.4020981442,-6.2111828262
 C,0,11.7934842903,-3.873748166,-7.0302130723
 C,0,11.6362084801,-4.995695237,-7.7990879936
 C,0,10.4238533198,-5.6979221663,-7.7460183504
 C,0,9.3832472641,-5.2416065993,-6.9769280591
 C,0,10.9638174615,-2.3163430597,-5.326721968
 H,0,12.7388150524,-3.3398970289,-7.0191314298
 H,0,12.4491222299,-5.3553469242,-8.4204233276
 H,0,10.3062562786,-6.6167016971,-8.3102837086
 H,0,8.4708732058,-5.8201063354,-6.9436769272
 C,0,10.0042802737,-1.9401253973,-4.4458960085
 H,0,11.9324985239,-1.8266642174,-5.3264488704
 H,0,10.2331209274,-1.1634564297,-3.7286290461
 Recover connectivity data from disk.
 NAtoms=     66 NQM=       66 NQMF=       0 NMMI=      0 NMMIF=      0
                NMic=       0 NMicF=      0.
                    Isotopes and Nuclear Properties:
 (Nuclear quadrupole moments (NQMom) in fm**2, nuclear magnetic moments (NMagM)
  in nuclear magnetons)

  Atom         1           2           3           4           5           6           7           8           9          10
 IAtWgt=          12          12          12          12          12          12          12          12          12          12
 AtmWgt=  12.0000000  12.0000000  12.0000000  12.0000000  12.0000000  12.0000000  12.0000000  12.0000000  12.0000000  12.0000000
 NucSpn=           0           0           0           0           0           0           0           0           0           0
 AtZEff=  -3.6000000  -3.6000000  -3.6000000  -3.6000000  -3.6000000  -3.6000000  -3.6000000  -3.6000000  -3.6000000  -3.6000000
 NQMom=    0.0000000   0.0000000   0.0000000   0.0000000   0.0000000   0.0000000   0.0000000   0.0000000   0.0000000   0.0000000
 NMagM=    0.0000000   0.0000000   0.0000000   0.0000000   0.0000000   0.0000000   0.0000000   0.0000000   0.0000000   0.0000000
 AtZNuc=   6.0000000   6.0000000   6.0000000   6.0000000   6.0000000   6.0000000   6.0000000   6.0000000   6.0000000   6.0000000

  Atom        11          12          13          14          15          16          17          18          19          20
 IAtWgt=          12          12          12          12          12          12          12          12          12          12
 AtmWgt=  12.0000000  12.0000000  12.0000000  12.0000000  12.0000000  12.0000000  12.0000000  12.0000000  12.0000000  12.0000000
 NucSpn=           0           0           0           0           0           0           0           0           0           0
 AtZEff=  -3.6000000  -3.6000000  -3.6000000  -3.6000000  -3.6000000  -3.6000000  -3.6000000  -3.6000000  -3.6000000  -3.6000000
 NQMom=    0.0000000   0.0000000   0.0000000   0.0000000   0.0000000   0.0000000   0.0000000   0.0000000   0.0000000   0.0000000
 NMagM=    0.0000000   0.0000000   0.0000000   0.0000000   0.0000000   0.0000000   0.0000000   0.0000000   0.0000000   0.0000000
 AtZNuc=   6.0000000   6.0000000   6.0000000   6.0000000   6.0000000   6.0000000   6.0000000   6.0000000   6.0000000   6.0000000

  Atom        21          22          23          24          25          26          27          28          29          30
 IAtWgt=          12          12          12          12          12          12           1           1           1           1
 AtmWgt=  12.0000000  12.0000000  12.0000000  12.0000000  12.0000000  12.0000000   1.0078250   1.0078250   1.0078250   1.0078250
 NucSpn=           0           0           0           0           0           0           1           1           1           1
 AtZEff=  -3.6000000  -3.6000000  -3.6000000  -3.6000000  -3.6000000  -3.6000000  -1.0000000  -1.0000000  -1.0000000  -1.0000000
 NQMom=    0.0000000   0.0000000   0.0000000   0.0000000   0.0000000   0.0000000   0.0000000   0.0000000   0.0000000   0.0000000
 NMagM=    0.0000000   0.0000000   0.0000000   0.0000000   0.0000000   0.0000000   2.7928460   2.7928460   2.7928460   2.7928460
 AtZNuc=   6.0000000   6.0000000   6.0000000   6.0000000   6.0000000   6.0000000   1.0000000   1.0000000   1.0000000   1.0000000

  Atom        31          32          33          34          35          36          37          38          39          40
 IAtWgt=           1           1           1           1          12          12           1           1           1           1
 AtmWgt=   1.0078250   1.0078250   1.0078250   1.0078250  12.0000000  12.0000000   1.0078250   1.0078250   1.0078250   1.0078250
 NucSpn=           1           1           1           1           0           0           1           1           1           1
 AtZEff=  -1.0000000  -1.0000000  -1.0000000  -1.0000000  -3.6000000  -3.6000000  -1.0000000  -1.0000000  -1.0000000  -1.0000000
 NQMom=    0.0000000   0.0000000   0.0000000   0.0000000   0.0000000   0.0000000   0.0000000   0.0000000   0.0000000   0.0000000
 NMagM=    2.7928460   2.7928460   2.7928460   2.7928460   0.0000000   0.0000000   2.7928460   2.7928460   2.7928460   2.7928460
 AtZNuc=   1.0000000   1.0000000   1.0000000   1.0000000   6.0000000   6.0000000   1.0000000   1.0000000   1.0000000   1.0000000

  Atom        41          42          43          44          45          46          47          48          49          50
 IAtWgt=          12          12          12          12          12          12           1           1           1           1
 AtmWgt=  12.0000000  12.0000000  12.0000000  12.0000000  12.0000000  12.0000000   1.0078250   1.0078250   1.0078250   1.0078250
 NucSpn=           0           0           0           0           0           0           1           1           1           1
 AtZEff=  -3.6000000  -3.6000000  -3.6000000  -3.6000000  -3.6000000  -3.6000000  -1.0000000  -1.0000000  -1.0000000  -1.0000000
 NQMom=    0.0000000   0.0000000   0.0000000   0.0000000   0.0000000   0.0000000   0.0000000   0.0000000   0.0000000   0.0000000
 NMagM=    0.0000000   0.0000000   0.0000000   0.0000000   0.0000000   0.0000000   2.7928460   2.7928460   2.7928460   2.7928460
 AtZNuc=   6.0000000   6.0000000   6.0000000   6.0000000   6.0000000   6.0000000   1.0000000   1.0000000   1.0000000   1.0000000

  Atom        51          52          53          54          55          56          57          58          59          60
 IAtWgt=          12           1           1          12          12          12          12          12          12           1
 AtmWgt=  12.0000000   1.0078250   1.0078250  12.0000000  12.0000000  12.0000000  12.0000000  12.0000000  12.0000000   1.0078250
 NucSpn=           0           1           1           0           0           0           0           0           0           1
 AtZEff=  -3.6000000  -1.0000000  -1.0000000  -3.6000000  -3.6000000  -3.6000000  -3.6000000  -3.6000000  -3.6000000  -1.0000000
 NQMom=    0.0000000   0.0000000   0.0000000   0.0000000   0.0000000   0.0000000   0.0000000   0.0000000   0.0000000   0.0000000
 NMagM=    0.0000000   2.7928460   2.7928460   0.0000000   0.0000000   0.0000000   0.0000000   0.0000000   0.0000000   2.7928460
 AtZNuc=   6.0000000   1.0000000   1.0000000   6.0000000   6.0000000   6.0000000   6.0000000   6.0000000   6.0000000   1.0000000

  Atom        61          62          63          64          65          66
 IAtWgt=           1           1           1          12           1           1
 AtmWgt=   1.0078250   1.0078250   1.0078250  12.0000000   1.0078250   1.0078250
 NucSpn=           1           1           1           0           1           1
 AtZEff=  -1.0000000  -1.0000000  -1.0000000  -3.6000000  -1.0000000  -1.0000000
 NQMom=    0.0000000   0.0000000   0.0000000   0.0000000   0.0000000   0.0000000
 NMagM=    2.7928460   2.7928460   2.7928460   0.0000000   2.7928460   2.7928460
 AtZNuc=   1.0000000   1.0000000   1.0000000   6.0000000   1.0000000   1.0000000
 Leave Link  101 at Mon Oct 18 22:51:13 2021, MaxMem=  1610612736 cpu:         9.5
 (Enter /applis/g09/l103.exe)

 GradGradGradGradGradGradGradGradGradGradGradGradGradGradGradGradGradGrad
 Berny optimization.
 Initialization pass.
                           ----------------------------
                           !    Initial Parameters    !
                           ! (Angstroms and Degrees)  !
 --------------------------                            --------------------------
 ! Name  Definition              Value          Derivative Info.                !
 --------------------------------------------------------------------------------
 ! R1    R(1,2)                  1.4116         calculate D2E/DX2 analytically  !
 ! R2    R(1,6)                  1.3721         calculate D2E/DX2 analytically  !
 ! R3    R(1,28)                 1.0808         calculate D2E/DX2 analytically  !
 ! R4    R(2,3)                  1.4194         calculate D2E/DX2 analytically  !
 ! R5    R(2,10)                 1.4485         calculate D2E/DX2 analytically  !
 ! R6    R(3,4)                  1.4096         calculate D2E/DX2 analytically  !
 ! R7    R(3,7)                  1.417          calculate D2E/DX2 analytically  !
 ! R8    R(4,5)                  1.3692         calculate D2E/DX2 analytically  !
 ! R9    R(4,39)                 1.0857         calculate D2E/DX2 analytically  !
 ! R10   R(5,6)                  1.4021         calculate D2E/DX2 analytically  !
 ! R11   R(5,40)                 1.0845         calculate D2E/DX2 analytically  !
 ! R12   R(6,27)                 1.0846         calculate D2E/DX2 analytically  !
 ! R13   R(7,8)                  1.3558         calculate D2E/DX2 analytically  !
 ! R14   R(7,38)                 1.0854         calculate D2E/DX2 analytically  !
 ! R15   R(8,9)                  1.4215         calculate D2E/DX2 analytically  !
 ! R16   R(8,37)                 1.0817         calculate D2E/DX2 analytically  !
 ! R17   R(9,10)                 1.4034         calculate D2E/DX2 analytically  !
 ! R18   R(9,11)                 1.4435         calculate D2E/DX2 analytically  !
 ! R19   R(10,14)                1.4471         calculate D2E/DX2 analytically  !
 ! R20   R(11,12)                1.4034         calculate D2E/DX2 analytically  !
 ! R21   R(11,51)                1.4216         calculate D2E/DX2 analytically  !
 ! R22   R(12,13)                1.4471         calculate D2E/DX2 analytically  !
 ! R23   R(12,36)                1.4485         calculate D2E/DX2 analytically  !
 ! R24   R(13,14)                1.4031         calculate D2E/DX2 analytically  !
 ! R25   R(13,15)                1.447          calculate D2E/DX2 analytically  !
 ! R26   R(14,18)                1.447          calculate D2E/DX2 analytically  !
 ! R27   R(15,16)                1.4034         calculate D2E/DX2 analytically  !
 ! R28   R(15,35)                1.4485         calculate D2E/DX2 analytically  !
 ! R29   R(16,17)                1.4434         calculate D2E/DX2 analytically  !
 ! R30   R(16,64)                1.4215         calculate D2E/DX2 analytically  !
 ! R31   R(17,18)                1.4034         calculate D2E/DX2 analytically  !
 ! R32   R(17,19)                1.4215         calculate D2E/DX2 analytically  !
 ! R33   R(18,22)                1.4485         calculate D2E/DX2 analytically  !
 ! R34   R(19,20)                1.3558         calculate D2E/DX2 analytically  !
 ! R35   R(19,34)                1.0817         calculate D2E/DX2 analytically  !
 ! R36   R(20,21)                1.417          calculate D2E/DX2 analytically  !
 ! R37   R(20,33)                1.0854         calculate D2E/DX2 analytically  !
 ! R38   R(21,22)                1.4194         calculate D2E/DX2 analytically  !
 ! R39   R(21,23)                1.4096         calculate D2E/DX2 analytically  !
 ! R40   R(22,26)                1.4116         calculate D2E/DX2 analytically  !
 ! R41   R(23,24)                1.3692         calculate D2E/DX2 analytically  !
 ! R42   R(23,32)                1.0857         calculate D2E/DX2 analytically  !
 ! R43   R(24,25)                1.4021         calculate D2E/DX2 analytically  !
 ! R44   R(24,31)                1.0845         calculate D2E/DX2 analytically  !
 ! R45   R(25,26)                1.3721         calculate D2E/DX2 analytically  !
 ! R46   R(25,30)                1.0846         calculate D2E/DX2 analytically  !
 ! R47   R(26,29)                1.0808         calculate D2E/DX2 analytically  !
 ! R48   R(35,54)                1.4194         calculate D2E/DX2 analytically  !
 ! R49   R(35,58)                1.4116         calculate D2E/DX2 analytically  !
 ! R50   R(36,41)                1.4194         calculate D2E/DX2 analytically  !
 ! R51   R(36,45)                1.4117         calculate D2E/DX2 analytically  !
 ! R52   R(41,42)                1.4096         calculate D2E/DX2 analytically  !
 ! R53   R(41,46)                1.417          calculate D2E/DX2 analytically  !
 ! R54   R(42,43)                1.3692         calculate D2E/DX2 analytically  !
 ! R55   R(42,47)                1.0857         calculate D2E/DX2 analytically  !
 ! R56   R(43,44)                1.4021         calculate D2E/DX2 analytically  !
 ! R57   R(43,48)                1.0845         calculate D2E/DX2 analytically  !
 ! R58   R(44,45)                1.3721         calculate D2E/DX2 analytically  !
 ! R59   R(44,49)                1.0846         calculate D2E/DX2 analytically  !
 ! R60   R(45,50)                1.0808         calculate D2E/DX2 analytically  !
 ! R61   R(46,51)                1.3558         calculate D2E/DX2 analytically  !
 ! R62   R(46,52)                1.0854         calculate D2E/DX2 analytically  !
 ! R63   R(51,53)                1.0817         calculate D2E/DX2 analytically  !
 ! R64   R(54,55)                1.4096         calculate D2E/DX2 analytically  !
 ! R65   R(54,59)                1.417          calculate D2E/DX2 analytically  !
 ! R66   R(55,56)                1.3692         calculate D2E/DX2 analytically  !
 ! R67   R(55,60)                1.0857         calculate D2E/DX2 analytically  !
 ! R68   R(56,57)                1.402          calculate D2E/DX2 analytically  !
 ! R69   R(56,61)                1.0845         calculate D2E/DX2 analytically  !
 ! R70   R(57,58)                1.3721         calculate D2E/DX2 analytically  !
 ! R71   R(57,62)                1.0846         calculate D2E/DX2 analytically  !
 ! R72   R(58,63)                1.0808         calculate D2E/DX2 analytically  !
 ! R73   R(59,64)                1.3558         calculate D2E/DX2 analytically  !
 ! R74   R(59,65)                1.0854         calculate D2E/DX2 analytically  !
 ! R75   R(64,66)                1.0817         calculate D2E/DX2 analytically  !
 ! A1    A(2,1,6)              121.6393         calculate D2E/DX2 analytically  !
 ! A2    A(2,1,28)             119.7033         calculate D2E/DX2 analytically  !
 ! A3    A(6,1,28)             118.6467         calculate D2E/DX2 analytically  !
 ! A4    A(1,2,3)              117.0826         calculate D2E/DX2 analytically  !
 ! A5    A(1,2,10)             123.5951         calculate D2E/DX2 analytically  !
 ! A6    A(3,2,10)             119.173          calculate D2E/DX2 analytically  !
 ! A7    A(2,3,4)              120.1111         calculate D2E/DX2 analytically  !
 ! A8    A(2,3,7)              119.4246         calculate D2E/DX2 analytically  !
 ! A9    A(4,3,7)              120.384          calculate D2E/DX2 analytically  !
 ! A10   A(3,4,5)              121.0141         calculate D2E/DX2 analytically  !
 ! A11   A(3,4,39)             118.3929         calculate D2E/DX2 analytically  !
 ! A12   A(5,4,39)             120.5756         calculate D2E/DX2 analytically  !
 ! A13   A(4,5,6)              119.2392         calculate D2E/DX2 analytically  !
 ! A14   A(4,5,40)             120.4884         calculate D2E/DX2 analytically  !
 ! A15   A(6,5,40)             120.2479         calculate D2E/DX2 analytically  !
 ! A16   A(1,6,5)              120.6948         calculate D2E/DX2 analytically  !
 ! A17   A(1,6,27)             119.4122         calculate D2E/DX2 analytically  !
 ! A18   A(5,6,27)             119.8907         calculate D2E/DX2 analytically  !
 ! A19   A(3,7,8)              120.6754         calculate D2E/DX2 analytically  !
 ! A20   A(3,7,38)             118.813          calculate D2E/DX2 analytically  !
 ! A21   A(8,7,38)             120.4186         calculate D2E/DX2 analytically  !
 ! A22   A(7,8,9)              121.6263         calculate D2E/DX2 analytically  !
 ! A23   A(7,8,37)             118.7108         calculate D2E/DX2 analytically  !
 ! A24   A(9,8,37)             119.6594         calculate D2E/DX2 analytically  !
 ! A25   A(8,9,10)             119.4405         calculate D2E/DX2 analytically  !
 ! A26   A(8,9,11)             121.1022         calculate D2E/DX2 analytically  !
 ! A27   A(10,9,11)            119.4345         calculate D2E/DX2 analytically  !
 ! A28   A(2,10,9)             118.834          calculate D2E/DX2 analytically  !
 ! A29   A(2,10,14)            122.2128         calculate D2E/DX2 analytically  !
 ! A30   A(9,10,14)            118.3857         calculate D2E/DX2 analytically  !
 ! A31   A(9,11,12)            119.4343         calculate D2E/DX2 analytically  !
 ! A32   A(9,11,51)            121.1022         calculate D2E/DX2 analytically  !
 ! A33   A(12,11,51)           119.441          calculate D2E/DX2 analytically  !
 ! A34   A(11,12,13)           118.3853         calculate D2E/DX2 analytically  !
 ! A35   A(11,12,36)           118.8343         calculate D2E/DX2 analytically  !
 ! A36   A(13,12,36)           122.2141         calculate D2E/DX2 analytically  !
 ! A37   A(12,13,14)           116.7642         calculate D2E/DX2 analytically  !
 ! A38   A(12,13,15)           126.4697         calculate D2E/DX2 analytically  !
 ! A39   A(14,13,15)           116.7661         calculate D2E/DX2 analytically  !
 ! A40   A(10,14,13)           116.7632         calculate D2E/DX2 analytically  !
 ! A41   A(10,14,18)           126.4712         calculate D2E/DX2 analytically  !
 ! A42   A(13,14,18)           116.7657         calculate D2E/DX2 analytically  !
 ! A43   A(13,15,16)           118.3894         calculate D2E/DX2 analytically  !
 ! A44   A(13,15,35)           122.2085         calculate D2E/DX2 analytically  !
 ! A45   A(16,15,35)           118.8373         calculate D2E/DX2 analytically  !
 ! A46   A(15,16,17)           119.4357         calculate D2E/DX2 analytically  !
 ! A47   A(15,16,64)           119.4345         calculate D2E/DX2 analytically  !
 ! A48   A(17,16,64)           121.107          calculate D2E/DX2 analytically  !
 ! A49   A(16,17,18)           119.4361         calculate D2E/DX2 analytically  !
 ! A50   A(16,17,19)           121.106          calculate D2E/DX2 analytically  !
 ! A51   A(18,17,19)           119.4348         calculate D2E/DX2 analytically  !
 ! A52   A(14,18,17)           118.3891         calculate D2E/DX2 analytically  !
 ! A53   A(14,18,22)           122.211          calculate D2E/DX2 analytically  !
 ! A54   A(17,18,22)           118.8337         calculate D2E/DX2 analytically  !
 ! A55   A(17,19,20)           121.6292         calculate D2E/DX2 analytically  !
 ! A56   A(17,19,34)           119.6619         calculate D2E/DX2 analytically  !
 ! A57   A(20,19,34)           118.7056         calculate D2E/DX2 analytically  !
 ! A58   A(19,20,21)           120.6759         calculate D2E/DX2 analytically  !
 ! A59   A(19,20,33)           120.4165         calculate D2E/DX2 analytically  !
 ! A60   A(21,20,33)           118.8149         calculate D2E/DX2 analytically  !
 ! A61   A(20,21,22)           119.4216         calculate D2E/DX2 analytically  !
 ! A62   A(20,21,23)           120.3884         calculate D2E/DX2 analytically  !
 ! A63   A(22,21,23)           120.11           calculate D2E/DX2 analytically  !
 ! A64   A(18,22,21)           119.1752         calculate D2E/DX2 analytically  !
 ! A65   A(18,22,26)           123.5893         calculate D2E/DX2 analytically  !
 ! A66   A(21,22,26)           117.0863         calculate D2E/DX2 analytically  !
 ! A67   A(21,23,24)           121.0133         calculate D2E/DX2 analytically  !
 ! A68   A(21,23,32)           118.3942         calculate D2E/DX2 analytically  !
 ! A69   A(24,23,32)           120.5751         calculate D2E/DX2 analytically  !
 ! A70   A(23,24,25)           119.2409         calculate D2E/DX2 analytically  !
 ! A71   A(23,24,31)           120.488          calculate D2E/DX2 analytically  !
 ! A72   A(25,24,31)           120.2467         calculate D2E/DX2 analytically  !
 ! A73   A(24,25,26)           120.6939         calculate D2E/DX2 analytically  !
 ! A74   A(24,25,30)           119.8902         calculate D2E/DX2 analytically  !
 ! A75   A(26,25,30)           119.4136         calculate D2E/DX2 analytically  !
 ! A76   A(22,26,25)           121.6375         calculate D2E/DX2 analytically  !
 ! A77   A(22,26,29)           119.7025         calculate D2E/DX2 analytically  !
 ! A78   A(25,26,29)           118.6494         calculate D2E/DX2 analytically  !
 ! A79   A(15,35,54)           119.1742         calculate D2E/DX2 analytically  !
 ! A80   A(15,35,58)           123.5891         calculate D2E/DX2 analytically  !
 ! A81   A(54,35,58)           117.0872         calculate D2E/DX2 analytically  !
 ! A82   A(12,36,41)           119.1744         calculate D2E/DX2 analytically  !
 ! A83   A(12,36,45)           123.5938         calculate D2E/DX2 analytically  !
 ! A84   A(41,36,45)           117.0829         calculate D2E/DX2 analytically  !
 ! A85   A(36,41,42)           120.1107         calculate D2E/DX2 analytically  !
 ! A86   A(36,41,46)           119.4265         calculate D2E/DX2 analytically  !
 ! A87   A(42,41,46)           120.3825         calculate D2E/DX2 analytically  !
 ! A88   A(41,42,43)           121.0148         calculate D2E/DX2 analytically  !
 ! A89   A(41,42,47)           118.3931         calculate D2E/DX2 analytically  !
 ! A90   A(43,42,47)           120.5748         calculate D2E/DX2 analytically  !
 ! A91   A(42,43,44)           119.2395         calculate D2E/DX2 analytically  !
 ! A92   A(42,43,48)           120.4881         calculate D2E/DX2 analytically  !
 ! A93   A(44,43,48)           120.248          calculate D2E/DX2 analytically  !
 ! A94   A(43,44,45)           120.6949         calculate D2E/DX2 analytically  !
 ! A95   A(43,44,49)           119.8915         calculate D2E/DX2 analytically  !
 ! A96   A(45,44,49)           119.4112         calculate D2E/DX2 analytically  !
 ! A97   A(36,45,44)           121.6389         calculate D2E/DX2 analytically  !
 ! A98   A(36,45,50)           119.7049         calculate D2E/DX2 analytically  !
 ! A99   A(44,45,50)           118.6452         calculate D2E/DX2 analytically  !
 ! A100  A(41,46,51)           120.674          calculate D2E/DX2 analytically  !
 ! A101  A(41,46,52)           118.8125         calculate D2E/DX2 analytically  !
 ! A102  A(51,46,52)           120.4205         calculate D2E/DX2 analytically  !
 ! A103  A(11,51,46)           121.6248         calculate D2E/DX2 analytically  !
 ! A104  A(11,51,53)           119.6595         calculate D2E/DX2 analytically  !
 ! A105  A(46,51,53)           118.7121         calculate D2E/DX2 analytically  !
 ! A106  A(35,54,55)           120.1097         calculate D2E/DX2 analytically  !
 ! A107  A(35,54,59)           119.4208         calculate D2E/DX2 analytically  !
 ! A108  A(55,54,59)           120.3895         calculate D2E/DX2 analytically  !
 ! A109  A(54,55,56)           121.0132         calculate D2E/DX2 analytically  !
 ! A110  A(54,55,60)           118.3944         calculate D2E/DX2 analytically  !
 ! A111  A(56,55,60)           120.5749         calculate D2E/DX2 analytically  !
 ! A112  A(55,56,57)           119.2412         calculate D2E/DX2 analytically  !
 ! A113  A(55,56,61)           120.4876         calculate D2E/DX2 analytically  !
 ! A114  A(57,56,61)           120.2468         calculate D2E/DX2 analytically  !
 ! A115  A(56,57,58)           120.6939         calculate D2E/DX2 analytically  !
 ! A116  A(56,57,62)           119.8903         calculate D2E/DX2 analytically  !
 ! A117  A(58,57,62)           119.4135         calculate D2E/DX2 analytically  !
 ! A118  A(35,58,57)           121.6369         calculate D2E/DX2 analytically  !
 ! A119  A(35,58,63)           119.7028         calculate D2E/DX2 analytically  !
 ! A120  A(57,58,63)           118.6496         calculate D2E/DX2 analytically  !
 ! A121  A(54,59,64)           120.6764         calculate D2E/DX2 analytically  !
 ! A122  A(54,59,65)           118.8148         calculate D2E/DX2 analytically  !
 ! A123  A(64,59,65)           120.416          calculate D2E/DX2 analytically  !
 ! A124  A(16,64,59)           121.6287         calculate D2E/DX2 analytically  !
 ! A125  A(16,64,66)           119.6615         calculate D2E/DX2 analytically  !
 ! A126  A(59,64,66)           118.7065         calculate D2E/DX2 analytically  !
 ! D1    D(6,1,2,3)             -4.0199         calculate D2E/DX2 analytically  !
 ! D2    D(6,1,2,10)          -179.5329         calculate D2E/DX2 analytically  !
 ! D3    D(28,1,2,3)           174.7735         calculate D2E/DX2 analytically  !
 ! D4    D(28,1,2,10)           -0.7394         calculate D2E/DX2 analytically  !
 ! D5    D(2,1,6,5)              0.0964         calculate D2E/DX2 analytically  !
 ! D6    D(2,1,6,27)           179.5435         calculate D2E/DX2 analytically  !
 ! D7    D(28,1,6,5)          -178.7095         calculate D2E/DX2 analytically  !
 ! D8    D(28,1,6,27)            0.7377         calculate D2E/DX2 analytically  !
 ! D9    D(1,2,3,4)              5.2747         calculate D2E/DX2 analytically  !
 ! D10   D(1,2,3,7)           -171.4811         calculate D2E/DX2 analytically  !
 ! D11   D(10,2,3,4)          -179.0054         calculate D2E/DX2 analytically  !
 ! D12   D(10,2,3,7)             4.2388         calculate D2E/DX2 analytically  !
 ! D13   D(1,2,10,9)           165.2684         calculate D2E/DX2 analytically  !
 ! D14   D(1,2,10,14)           -5.9489         calculate D2E/DX2 analytically  !
 ! D15   D(3,2,10,9)           -10.156          calculate D2E/DX2 analytically  !
 ! D16   D(3,2,10,14)          178.6267         calculate D2E/DX2 analytically  !
 ! D17   D(2,3,4,5)             -2.7148         calculate D2E/DX2 analytically  !
 ! D18   D(2,3,4,39)           178.7923         calculate D2E/DX2 analytically  !
 ! D19   D(7,3,4,5)            174.0095         calculate D2E/DX2 analytically  !
 ! D20   D(7,3,4,39)            -4.4833         calculate D2E/DX2 analytically  !
 ! D21   D(2,3,7,8)              3.0832         calculate D2E/DX2 analytically  !
 ! D22   D(2,3,7,38)           179.5908         calculate D2E/DX2 analytically  !
 ! D23   D(4,3,7,8)           -173.6635         calculate D2E/DX2 analytically  !
 ! D24   D(4,3,7,38)             2.844          calculate D2E/DX2 analytically  !
 ! D25   D(3,4,5,6)             -1.3342         calculate D2E/DX2 analytically  !
 ! D26   D(3,4,5,40)          -179.5382         calculate D2E/DX2 analytically  !
 ! D27   D(39,4,5,6)           177.1258         calculate D2E/DX2 analytically  !
 ! D28   D(39,4,5,40)           -1.0782         calculate D2E/DX2 analytically  !
 ! D29   D(4,5,6,1)              2.6694         calculate D2E/DX2 analytically  !
 ! D30   D(4,5,6,27)          -176.7751         calculate D2E/DX2 analytically  !
 ! D31   D(40,5,6,1)          -179.1222         calculate D2E/DX2 analytically  !
 ! D32   D(40,5,6,27)            1.4334         calculate D2E/DX2 analytically  !
 ! D33   D(3,7,8,9)             -4.5029         calculate D2E/DX2 analytically  !
 ! D34   D(3,7,8,37)           174.8171         calculate D2E/DX2 analytically  !
 ! D35   D(38,7,8,9)           179.0457         calculate D2E/DX2 analytically  !
 ! D36   D(38,7,8,37)           -1.6343         calculate D2E/DX2 analytically  !
 ! D37   D(7,8,9,10)            -1.6374         calculate D2E/DX2 analytically  !
 ! D38   D(7,8,9,11)          -179.8922         calculate D2E/DX2 analytically  !
 ! D39   D(37,8,9,10)          179.0488         calculate D2E/DX2 analytically  !
 ! D40   D(37,8,9,11)            0.7941         calculate D2E/DX2 analytically  !
 ! D41   D(8,9,10,2)             8.8817         calculate D2E/DX2 analytically  !
 ! D42   D(8,9,10,14)         -179.5621         calculate D2E/DX2 analytically  !
 ! D43   D(11,9,10,2)         -172.8341         calculate D2E/DX2 analytically  !
 ! D44   D(11,9,10,14)          -1.2779         calculate D2E/DX2 analytically  !
 ! D45   D(8,9,11,12)         -167.039          calculate D2E/DX2 analytically  !
 ! D46   D(8,9,11,51)           11.2263         calculate D2E/DX2 analytically  !
 ! D47   D(10,9,11,12)          14.7062         calculate D2E/DX2 analytically  !
 ! D48   D(10,9,11,51)        -167.0285         calculate D2E/DX2 analytically  !
 ! D49   D(2,10,14,13)         145.6575         calculate D2E/DX2 analytically  !
 ! D50   D(2,10,14,18)         -34.3352         calculate D2E/DX2 analytically  !
 ! D51   D(9,10,14,13)         -25.5975         calculate D2E/DX2 analytically  !
 ! D52   D(9,10,14,18)         154.4098         calculate D2E/DX2 analytically  !
 ! D53   D(9,11,12,13)          -1.2685         calculate D2E/DX2 analytically  !
 ! D54   D(9,11,12,36)        -172.8334         calculate D2E/DX2 analytically  !
 ! D55   D(51,11,12,13)       -179.5629         calculate D2E/DX2 analytically  !
 ! D56   D(51,11,12,36)          8.8722         calculate D2E/DX2 analytically  !
 ! D57   D(9,11,51,46)        -179.8973         calculate D2E/DX2 analytically  !
 ! D58   D(9,11,51,53)           0.7907         calculate D2E/DX2 analytically  !
 ! D59   D(12,11,51,46)         -1.6321         calculate D2E/DX2 analytically  !
 ! D60   D(12,11,51,53)        179.0559         calculate D2E/DX2 analytically  !
 ! D61   D(11,12,13,14)        -25.6075         calculate D2E/DX2 analytically  !
 ! D62   D(11,12,13,15)        154.4054         calculate D2E/DX2 analytically  !
 ! D63   D(36,12,13,14)        145.6564         calculate D2E/DX2 analytically  !
 ! D64   D(36,12,13,15)        -34.3307         calculate D2E/DX2 analytically  !
 ! D65   D(11,12,36,41)        -10.1487         calculate D2E/DX2 analytically  !
 ! D66   D(11,12,36,45)        165.2819         calculate D2E/DX2 analytically  !
 ! D67   D(13,12,36,41)        178.6251         calculate D2E/DX2 analytically  !
 ! D68   D(13,12,36,45)         -5.9443         calculate D2E/DX2 analytically  !
 ! D69   D(12,13,14,10)         38.9399         calculate D2E/DX2 analytically  !
 ! D70   D(12,13,14,18)       -141.0667         calculate D2E/DX2 analytically  !
 ! D71   D(15,13,14,10)       -141.0717         calculate D2E/DX2 analytically  !
 ! D72   D(15,13,14,18)         38.9217         calculate D2E/DX2 analytically  !
 ! D73   D(12,13,15,16)        154.3824         calculate D2E/DX2 analytically  !
 ! D74   D(12,13,15,35)        -34.3408         calculate D2E/DX2 analytically  !
 ! D75   D(14,13,15,16)        -25.6047         calculate D2E/DX2 analytically  !
 ! D76   D(14,13,15,35)        145.6721         calculate D2E/DX2 analytically  !
 ! D77   D(10,14,18,17)        154.3957         calculate D2E/DX2 analytically  !
 ! D78   D(10,14,18,22)        -34.3391         calculate D2E/DX2 analytically  !
 ! D79   D(13,14,18,17)        -25.597          calculate D2E/DX2 analytically  !
 ! D80   D(13,14,18,22)        145.6682         calculate D2E/DX2 analytically  !
 ! D81   D(13,15,16,17)         -1.2402         calculate D2E/DX2 analytically  !
 ! D82   D(13,15,16,64)       -179.5213         calculate D2E/DX2 analytically  !
 ! D83   D(35,15,16,17)       -172.8167         calculate D2E/DX2 analytically  !
 ! D84   D(35,15,16,64)          8.9021         calculate D2E/DX2 analytically  !
 ! D85   D(13,15,35,54)        178.6024         calculate D2E/DX2 analytically  !
 ! D86   D(13,15,35,58)         -5.9774         calculate D2E/DX2 analytically  !
 ! D87   D(16,15,35,54)        -10.1584         calculate D2E/DX2 analytically  !
 ! D88   D(16,15,35,58)        165.2618         calculate D2E/DX2 analytically  !
 ! D89   D(15,16,17,18)         14.6607         calculate D2E/DX2 analytically  !
 ! D90   D(15,16,17,19)       -167.0968         calculate D2E/DX2 analytically  !
 ! D91   D(64,16,17,18)       -167.0877         calculate D2E/DX2 analytically  !
 ! D92   D(64,16,17,19)         11.1548         calculate D2E/DX2 analytically  !
 ! D93   D(15,16,64,59)         -1.6551         calculate D2E/DX2 analytically  !
 ! D94   D(15,16,64,66)        179.0152         calculate D2E/DX2 analytically  !
 ! D95   D(17,16,64,59)       -179.9067         calculate D2E/DX2 analytically  !
 ! D96   D(17,16,64,66)          0.7636         calculate D2E/DX2 analytically  !
 ! D97   D(16,17,18,14)         -1.2476         calculate D2E/DX2 analytically  !
 ! D98   D(16,17,18,22)       -172.8134         calculate D2E/DX2 analytically  !
 ! D99   D(19,17,18,14)       -179.5198         calculate D2E/DX2 analytically  !
 ! D100  D(19,17,18,22)          8.9143         calculate D2E/DX2 analytically  !
 ! D101  D(16,17,19,20)       -179.9065         calculate D2E/DX2 analytically  !
 ! D102  D(16,17,19,34)          0.7679         calculate D2E/DX2 analytically  !
 ! D103  D(18,17,19,20)         -1.6639         calculate D2E/DX2 analytically  !
 ! D104  D(18,17,19,34)        179.0105         calculate D2E/DX2 analytically  !
 ! D105  D(14,18,22,21)        178.6022         calculate D2E/DX2 analytically  !
 ! D106  D(14,18,22,26)         -5.9727         calculate D2E/DX2 analytically  !
 ! D107  D(17,18,22,21)        -10.17           calculate D2E/DX2 analytically  !
 ! D108  D(17,18,22,26)        165.2551         calculate D2E/DX2 analytically  !
 ! D109  D(17,19,20,21)         -4.5033         calculate D2E/DX2 analytically  !
 ! D110  D(17,19,20,33)        179.0387         calculate D2E/DX2 analytically  !
 ! D111  D(34,19,20,21)        174.8286         calculate D2E/DX2 analytically  !
 ! D112  D(34,19,20,33)         -1.6294         calculate D2E/DX2 analytically  !
 ! D113  D(19,20,21,22)          3.103          calculate D2E/DX2 analytically  !
 ! D114  D(19,20,21,23)       -173.6481         calculate D2E/DX2 analytically  !
 ! D115  D(33,20,21,22)        179.617          calculate D2E/DX2 analytically  !
 ! D116  D(33,20,21,23)          2.8659         calculate D2E/DX2 analytically  !
 ! D117  D(20,21,22,18)          4.2263         calculate D2E/DX2 analytically  !
 ! D118  D(20,21,22,26)       -171.4938         calculate D2E/DX2 analytically  !
 ! D119  D(23,21,22,18)       -179.0134         calculate D2E/DX2 analytically  !
 ! D120  D(23,21,22,26)          5.2665         calculate D2E/DX2 analytically  !
 ! D121  D(20,21,23,24)        174.0156         calculate D2E/DX2 analytically  !
 ! D122  D(20,21,23,32)         -4.4757         calculate D2E/DX2 analytically  !
 ! D123  D(22,21,23,24)         -2.7131         calculate D2E/DX2 analytically  !
 ! D124  D(22,21,23,32)        178.7957         calculate D2E/DX2 analytically  !
 ! D125  D(18,22,26,25)       -179.5247         calculate D2E/DX2 analytically  !
 ! D126  D(18,22,26,29)         -0.7308         calculate D2E/DX2 analytically  !
 ! D127  D(21,22,26,25)         -4.0111         calculate D2E/DX2 analytically  !
 ! D128  D(21,22,26,29)        174.7828         calculate D2E/DX2 analytically  !
 ! D129  D(21,23,24,25)         -1.3294         calculate D2E/DX2 analytically  !
 ! D130  D(21,23,24,31)       -179.5355         calculate D2E/DX2 analytically  !
 ! D131  D(32,23,24,25)        177.129          calculate D2E/DX2 analytically  !
 ! D132  D(32,23,24,31)         -1.0772         calculate D2E/DX2 analytically  !
 ! D133  D(23,24,25,26)          2.6651         calculate D2E/DX2 analytically  !
 ! D134  D(23,24,25,30)       -176.7786         calculate D2E/DX2 analytically  !
 ! D135  D(31,24,25,26)       -179.1244         calculate D2E/DX2 analytically  !
 ! D136  D(31,24,25,30)          1.4319         calculate D2E/DX2 analytically  !
 ! D137  D(24,25,26,22)          0.0936         calculate D2E/DX2 analytically  !
 ! D138  D(24,25,26,29)       -178.7126         calculate D2E/DX2 analytically  !
 ! D139  D(30,25,26,22)        179.5399         calculate D2E/DX2 analytically  !
 ! D140  D(30,25,26,29)          0.7337         calculate D2E/DX2 analytically  !
 ! D141  D(15,35,54,55)       -179.0203         calculate D2E/DX2 analytically  !
 ! D142  D(15,35,54,59)          4.2192         calculate D2E/DX2 analytically  !
 ! D143  D(58,35,54,55)          5.2642         calculate D2E/DX2 analytically  !
 ! D144  D(58,35,54,59)       -171.4963         calculate D2E/DX2 analytically  !
 ! D145  D(15,35,58,57)       -179.5198         calculate D2E/DX2 analytically  !
 ! D146  D(15,35,58,63)         -0.7252         calculate D2E/DX2 analytically  !
 ! D147  D(54,35,58,57)         -4.011          calculate D2E/DX2 analytically  !
 ! D148  D(54,35,58,63)        174.7836         calculate D2E/DX2 analytically  !
 ! D149  D(12,36,41,42)       -179.0069         calculate D2E/DX2 analytically  !
 ! D150  D(12,36,41,46)          4.238          calculate D2E/DX2 analytically  !
 ! D151  D(45,36,41,42)          5.2675         calculate D2E/DX2 analytically  !
 ! D152  D(45,36,41,46)       -171.4876         calculate D2E/DX2 analytically  !
 ! D153  D(12,36,45,44)       -179.5301         calculate D2E/DX2 analytically  !
 ! D154  D(12,36,45,50)         -0.7476         calculate D2E/DX2 analytically  !
 ! D155  D(41,36,45,44)         -4.011          calculate D2E/DX2 analytically  !
 ! D156  D(41,36,45,50)        174.7715         calculate D2E/DX2 analytically  !
 ! D157  D(36,41,42,43)         -2.7139         calculate D2E/DX2 analytically  !
 ! D158  D(36,41,42,47)        178.7894         calculate D2E/DX2 analytically  !
 ! D159  D(46,41,42,43)        174.0098         calculate D2E/DX2 analytically  !
 ! D160  D(46,41,42,47)         -4.4868         calculate D2E/DX2 analytically  !
 ! D161  D(36,41,46,51)          3.0797         calculate D2E/DX2 analytically  !
 ! D162  D(36,41,46,52)        179.5882         calculate D2E/DX2 analytically  !
 ! D163  D(42,41,46,51)       -173.6664         calculate D2E/DX2 analytically  !
 ! D164  D(42,41,46,52)          2.8421         calculate D2E/DX2 analytically  !
 ! D165  D(41,42,43,44)         -1.3302         calculate D2E/DX2 analytically  !
 ! D166  D(41,42,43,48)       -179.533          calculate D2E/DX2 analytically  !
 ! D167  D(47,42,43,44)        177.1337         calculate D2E/DX2 analytically  !
 ! D168  D(47,42,43,48)         -1.0691         calculate D2E/DX2 analytically  !
 ! D169  D(42,43,44,45)          2.667          calculate D2E/DX2 analytically  !
 ! D170  D(42,43,44,49)       -176.7759         calculate D2E/DX2 analytically  !
 ! D171  D(48,43,44,45)       -179.1258         calculate D2E/DX2 analytically  !
 ! D172  D(48,43,44,49)          1.4314         calculate D2E/DX2 analytically  !
 ! D173  D(43,44,45,36)          0.092          calculate D2E/DX2 analytically  !
 ! D174  D(43,44,45,50)       -178.703          calculate D2E/DX2 analytically  !
 ! D175  D(49,44,45,36)        179.5376         calculate D2E/DX2 analytically  !
 ! D176  D(49,44,45,50)          0.7426         calculate D2E/DX2 analytically  !
 ! D177  D(41,46,51,11)         -4.5014         calculate D2E/DX2 analytically  !
 ! D178  D(41,46,51,53)        174.8169         calculate D2E/DX2 analytically  !
 ! D179  D(52,46,51,11)        179.0464         calculate D2E/DX2 analytically  !
 ! D180  D(52,46,51,53)         -1.6353         calculate D2E/DX2 analytically  !
 ! D181  D(35,54,55,56)         -2.711          calculate D2E/DX2 analytically  !
 ! D182  D(35,54,55,60)        178.7994         calculate D2E/DX2 analytically  !
 ! D183  D(59,54,55,56)        174.0178         calculate D2E/DX2 analytically  !
 ! D184  D(59,54,55,60)         -4.4717         calculate D2E/DX2 analytically  !
 ! D185  D(35,54,59,64)          3.1061         calculate D2E/DX2 analytically  !
 ! D186  D(35,54,59,65)        179.6189         calculate D2E/DX2 analytically  !
 ! D187  D(55,54,59,64)       -173.6452         calculate D2E/DX2 analytically  !
 ! D188  D(55,54,59,65)          2.8676         calculate D2E/DX2 analytically  !
 ! D189  D(54,55,56,57)         -1.3289         calculate D2E/DX2 analytically  !
 ! D190  D(54,55,56,61)       -179.5335         calculate D2E/DX2 analytically  !
 ! D191  D(60,55,56,57)        177.1278         calculate D2E/DX2 analytically  !
 ! D192  D(60,55,56,61)         -1.0768         calculate D2E/DX2 analytically  !
 ! D193  D(55,56,57,58)          2.6623         calculate D2E/DX2 analytically  !
 ! D194  D(55,56,57,62)       -176.782          calculate D2E/DX2 analytically  !
 ! D195  D(61,56,57,58)       -179.1288         calculate D2E/DX2 analytically  !
 ! D196  D(61,56,57,62)          1.427          calculate D2E/DX2 analytically  !
 ! D197  D(56,57,58,35)          0.0961         calculate D2E/DX2 analytically  !
 ! D198  D(56,57,58,63)       -178.7109         calculate D2E/DX2 analytically  !
 ! D199  D(62,57,58,35)        179.543          calculate D2E/DX2 analytically  !
 ! D200  D(62,57,58,63)          0.736          calculate D2E/DX2 analytically  !
 ! D201  D(54,59,64,16)         -4.5071         calculate D2E/DX2 analytically  !
 ! D202  D(54,59,64,66)        174.8288         calculate D2E/DX2 analytically  !
 ! D203  D(65,59,64,16)        179.036          calculate D2E/DX2 analytically  !
 ! D204  D(65,59,64,66)         -1.6281         calculate D2E/DX2 analytically  !
 --------------------------------------------------------------------------------
 Trust Radius=3.00D-01 FncErr=1.00D-07 GrdErr=1.00D-07
 Number of steps in this run=      2 maximum allowed number of steps=      2.
 GradGradGradGradGradGradGradGradGradGradGradGradGradGradGradGradGradGrad

 Leave Link  103 at Mon Oct 18 22:51:13 2021, MaxMem=  1610612736 cpu:         0.3
 (Enter /applis/g09/l202.exe)
 Stoichiometry    C42H24
 Framework group  C1[X(C42H24)]
 Deg. of freedom   192
 Full point group                 C1      NOp   1
 RotChk:  IX=0 Diff= 2.65D-15
 Largest Abelian subgroup         C1      NOp   1
 Largest concise Abelian subgroup C1      NOp   1
                         Standard orientation:                         
 ---------------------------------------------------------------------
 Center     Atomic      Atomic             Coordinates (Angstroms)
 Number     Number       Type             X           Y           Z
 ---------------------------------------------------------------------
      1          6           0        3.231937   -0.029710   -1.618650
      2          6           0        2.604558   -1.208173   -1.160087
      3          6           0        3.202334   -2.442608   -1.525387
      4          6           0        4.430407   -2.456293   -2.217280
      5          6           0        5.039291   -1.290197   -2.596885
      6          6           0        4.413573   -0.067588   -2.314961
      7          6           0        2.521249   -3.654285   -1.250156
      8          6           0        1.282087   -3.641698   -0.700217
      9          6           0        0.659483   -2.430356   -0.293196
     10          6           0        1.353257   -1.218174   -0.430460
     11          6           0       -0.659507   -2.430322    0.293275
     12          6           0       -1.353209   -1.218105    0.430546
     13          6           0       -0.701534    0.000015   -0.000126
     14          6           0        0.701572    0.000030    0.000031
     15          6           0       -1.353152    1.218137   -0.430672
     16          6           0       -0.659598    2.430406   -0.293103
     17          6           0        0.659485    2.430442    0.292988
     18          6           0        1.353156    1.218203    0.430496
     19          6           0        1.282568    3.641825    0.699230
     20          6           0        2.521759    3.654365    1.249089
     21          6           0        3.202485    2.442635    1.525069
     22          6           0        2.604436    1.208224    1.160195
     23          6           0        4.430428    2.456246    2.217155
     24          6           0        5.038916    1.290107    2.597311
     25          6           0        4.412975    0.067557    2.315679
     26          6           0        3.231442    0.029741    1.619169
     27          1           0        4.860335    0.859733   -2.656807
     28          1           0        2.767487    0.929369   -1.437980
     29          1           0        2.766780   -0.929270    1.438652
     30          1           0        4.859468   -0.859748    2.657919
     31          1           0        5.979953    1.310712    3.136070
     32          1           0        4.872754    3.416284    2.465041
     33          1           0        2.985289    4.592337    1.538009
     34          1           0        0.757548    4.580017    0.580021
     35          6           0       -2.604453    1.208012   -1.160280
     36          6           0       -2.604484   -1.208025    1.160173
     37          1           0        0.756616   -4.579730   -0.581716
     38          1           0        2.984446   -4.592193   -1.539815
     39          1           0        4.872501   -3.416369   -2.465431
     40          1           0        5.980434   -1.310860   -3.135455
     41          6           0       -3.202282   -2.442407    1.525636
     42          6           0       -4.430337   -2.455971    2.217574
     43          6           0       -5.039200   -1.289807    2.597056
     44          6           0       -4.413519   -0.067235    2.314887
     45          6           0       -3.231918   -0.029452    1.618501
     46          6           0       -2.521261   -3.654166    1.250551
     47          1           0       -4.872479   -3.416001    2.465811
     48          1           0       -5.980282   -1.310399    3.135732
     49          1           0       -4.860254    0.860147    2.656614
     50          1           0       -2.767462    0.929612    1.437746
     51          6           0       -1.282127   -3.641687    0.700514
     52          1           0       -2.984489   -4.592004    1.540388
     53          1           0       -0.756663   -4.579730    0.582112
     54          6           0       -3.202559    2.442362   -1.525259
     55          6           0       -4.430470    2.455847   -2.217398
     56          6           0       -5.038888    1.289637   -2.597465
     57          6           0       -4.412912    0.067142   -2.315677
     58          6           0       -3.231380    0.029450   -1.619152
     59          6           0       -2.521901    3.654144   -1.249314
     60          1           0       -4.872819    3.415837   -2.465425
     61          1           0       -5.979886    1.310151   -3.136296
     62          1           0       -4.859376   -0.860221   -2.657797
     63          1           0       -2.766673   -0.929517   -1.438535
     64          6           0       -1.282707    3.641708   -0.699451
     65          1           0       -2.985478    4.592079   -1.538281
     66          1           0       -0.757741    4.579929   -0.580265
 ---------------------------------------------------------------------
 Rotational constants (GHZ):      0.1285644      0.0758090      0.0638722
 Leave Link  202 at Mon Oct 18 22:51:13 2021, MaxMem=  1610612736 cpu:         0.0
 (Enter /applis/g09/l301.exe)
 Basis read from chk: "FREQ.chk" (5D, 7F)
 No pseudopotential information found on chk file.
 AO basis set (Overlap normalization):
 Atom C1       Shell     1 S   6     bf    1 -     1          6.107475821358         -0.056143164909         -3.058805756432
      0.4563240000D+04  0.1966650249D-02
      0.6820240000D+03  0.1523060193D-01
      0.1549730000D+03  0.7612690966D-01
      0.4445530000D+02  0.2608010331D+00
      0.1302900000D+02  0.6164620782D+00
      0.1827730000D+01  0.2210060280D+00
 Atom C1       Shell     2 SP   3    bf    2 -     5          6.107475821358         -0.056143164909         -3.058805756432
      0.2096420000D+02  0.1146600807D+00  0.4024869267D-01
      0.4803310000D+01  0.9199996477D+00  0.2375939567D+00
      0.1459330000D+01 -0.3030682134D-02  0.8158538515D+00
 Atom C1       Shell     3 SP   1    bf    6 -     9          6.107475821358         -0.056143164909         -3.058805756432
      0.4834560000D+00  0.1000000000D+01  0.1000000000D+01
 Atom C1       Shell     4 SP   1    bf   10 -    13          6.107475821358         -0.056143164909         -3.058805756432
      0.1455850000D+00  0.1000000000D+01  0.1000000000D+01
 Atom C1       Shell     5 SP   1    bf   14 -    17          6.107475821358         -0.056143164909         -3.058805756432
      0.4380000000D-01  0.1000000000D+01  0.1000000000D+01
 Atom C1       Shell     6 D   1     bf   18 -    22          6.107475821358         -0.056143164909         -3.058805756432
      0.1252000000D+01  0.1000000000D+01
 Atom C1       Shell     7 D   1     bf   23 -    27          6.107475821358         -0.056143164909         -3.058805756432
      0.3130000000D+00  0.1000000000D+01
 Atom C2       Shell     8 S   6     bf   28 -    28          4.921901985660         -2.283116777880         -2.192246223660
      0.4563240000D+04  0.1966650249D-02
      0.6820240000D+03  0.1523060193D-01
      0.1549730000D+03  0.7612690966D-01
      0.4445530000D+02  0.2608010331D+00
      0.1302900000D+02  0.6164620782D+00
      0.1827730000D+01  0.2210060280D+00
 Atom C2       Shell     9 SP   3    bf   29 -    32          4.921901985660         -2.283116777880         -2.192246223660
      0.2096420000D+02  0.1146600807D+00  0.4024869267D-01
      0.4803310000D+01  0.9199996477D+00  0.2375939567D+00
      0.1459330000D+01 -0.3030682134D-02  0.8158538515D+00
 Atom C2       Shell    10 SP   1    bf   33 -    36          4.921901985660         -2.283116777880         -2.192246223660
      0.4834560000D+00  0.1000000000D+01  0.1000000000D+01
 Atom C2       Shell    11 SP   1    bf   37 -    40          4.921901985660         -2.283116777880         -2.192246223660
      0.1455850000D+00  0.1000000000D+01  0.1000000000D+01
 Atom C2       Shell    12 SP   1    bf   41 -    44          4.921901985660         -2.283116777880         -2.192246223660
      0.4380000000D-01  0.1000000000D+01  0.1000000000D+01
 Atom C2       Shell    13 D   1     bf   45 -    49          4.921901985660         -2.283116777880         -2.192246223660
      0.1252000000D+01  0.1000000000D+01
 Atom C2       Shell    14 D   1     bf   50 -    54          4.921901985660         -2.283116777880         -2.192246223660
      0.3130000000D+00  0.1000000000D+01
 Atom C3       Shell    15 S   6     bf   55 -    55          6.051534950618         -4.615860260256         -2.882563402892
      0.4563240000D+04  0.1966650249D-02
      0.6820240000D+03  0.1523060193D-01
      0.1549730000D+03  0.7612690966D-01
      0.4445530000D+02  0.2608010331D+00
      0.1302900000D+02  0.6164620782D+00
      0.1827730000D+01  0.2210060280D+00
 Atom C3       Shell    16 SP   3    bf   56 -    59          6.051534950618         -4.615860260256         -2.882563402892
      0.2096420000D+02  0.1146600807D+00  0.4024869267D-01
      0.4803310000D+01  0.9199996477D+00  0.2375939567D+00
      0.1459330000D+01 -0.3030682134D-02  0.8158538515D+00
 Atom C3       Shell    17 SP   1    bf   60 -    63          6.051534950618         -4.615860260256         -2.882563402892
      0.4834560000D+00  0.1000000000D+01  0.1000000000D+01
 Atom C3       Shell    18 SP   1    bf   64 -    67          6.051534950618         -4.615860260256         -2.882563402892
      0.1455850000D+00  0.1000000000D+01  0.1000000000D+01
 Atom C3       Shell    19 SP   1    bf   68 -    71          6.051534950618         -4.615860260256         -2.882563402892
      0.4380000000D-01  0.1000000000D+01  0.1000000000D+01
 Atom C3       Shell    20 D   1     bf   72 -    76          6.051534950618         -4.615860260256         -2.882563402892
      0.1252000000D+01  0.1000000000D+01
 Atom C3       Shell    21 D   1     bf   77 -    81          6.051534950618         -4.615860260256         -2.882563402892
      0.3130000000D+00  0.1000000000D+01
 Atom C4       Shell    22 S   6     bf   82 -    82          8.372255127284         -4.641720868873         -4.190052562484
      0.4563240000D+04  0.1966650249D-02
      0.6820240000D+03  0.1523060193D-01
      0.1549730000D+03  0.7612690966D-01
      0.4445530000D+02  0.2608010331D+00
      0.1302900000D+02  0.6164620782D+00
      0.1827730000D+01  0.2210060280D+00
 Atom C4       Shell    23 SP   3    bf   83 -    86          8.372255127284         -4.641720868873         -4.190052562484
      0.2096420000D+02  0.1146600807D+00  0.4024869267D-01
      0.4803310000D+01  0.9199996477D+00  0.2375939567D+00
      0.1459330000D+01 -0.3030682134D-02  0.8158538515D+00
 Atom C4       Shell    24 SP   1    bf   87 -    90          8.372255127284         -4.641720868873         -4.190052562484
      0.4834560000D+00  0.1000000000D+01  0.1000000000D+01
 Atom C4       Shell    25 SP   1    bf   91 -    94          8.372255127284         -4.641720868873         -4.190052562484
      0.1455850000D+00  0.1000000000D+01  0.1000000000D+01
 Atom C4       Shell    26 SP   1    bf   95 -    98          8.372255127284         -4.641720868873         -4.190052562484
      0.4380000000D-01  0.1000000000D+01  0.1000000000D+01
 Atom C4       Shell    27 D   1     bf   99 -   103          8.372255127284         -4.641720868873         -4.190052562484
      0.1252000000D+01  0.1000000000D+01
 Atom C4       Shell    28 D   1     bf  104 -   108          8.372255127284         -4.641720868873         -4.190052562484
      0.3130000000D+00  0.1000000000D+01
 Atom C5       Shell    29 S   6     bf  109 -   109          9.522879371386         -2.438118474876         -4.907400605579
      0.4563240000D+04  0.1966650249D-02
      0.6820240000D+03  0.1523060193D-01
      0.1549730000D+03  0.7612690966D-01
      0.4445530000D+02  0.2608010331D+00
      0.1302900000D+02  0.6164620782D+00
      0.1827730000D+01  0.2210060280D+00
 Atom C5       Shell    30 SP   3    bf  110 -   113          9.522879371386         -2.438118474876         -4.907400605579
      0.2096420000D+02  0.1146600807D+00  0.4024869267D-01
      0.4803310000D+01  0.9199996477D+00  0.2375939567D+00
      0.1459330000D+01 -0.3030682134D-02  0.8158538515D+00
 Atom C5       Shell    31 SP   1    bf  114 -   117          9.522879371386         -2.438118474876         -4.907400605579
      0.4834560000D+00  0.1000000000D+01  0.1000000000D+01
 Atom C5       Shell    32 SP   1    bf  118 -   121          9.522879371386         -2.438118474876         -4.907400605579
      0.1455850000D+00  0.1000000000D+01  0.1000000000D+01
 Atom C5       Shell    33 SP   1    bf  122 -   125          9.522879371386         -2.438118474876         -4.907400605579
      0.4380000000D-01  0.1000000000D+01  0.1000000000D+01
 Atom C5       Shell    34 D   1     bf  126 -   130          9.522879371386         -2.438118474876         -4.907400605579
      0.1252000000D+01  0.1000000000D+01
 Atom C5       Shell    35 D   1     bf  131 -   135          9.522879371386         -2.438118474876         -4.907400605579
      0.3130000000D+00  0.1000000000D+01
 Atom C6       Shell    36 S   6     bf  136 -   136          8.340444587604         -0.127723283584         -4.374643077858
      0.4563240000D+04  0.1966650249D-02
      0.6820240000D+03  0.1523060193D-01
      0.1549730000D+03  0.7612690966D-01
      0.4445530000D+02  0.2608010331D+00
      0.1302900000D+02  0.6164620782D+00
      0.1827730000D+01  0.2210060280D+00
 Atom C6       Shell    37 SP   3    bf  137 -   140          8.340444587604         -0.127723283584         -4.374643077858
      0.2096420000D+02  0.1146600807D+00  0.4024869267D-01
      0.4803310000D+01  0.9199996477D+00  0.2375939567D+00
      0.1459330000D+01 -0.3030682134D-02  0.8158538515D+00
 Atom C6       Shell    38 SP   1    bf  141 -   144          8.340444587604         -0.127723283584         -4.374643077858
      0.4834560000D+00  0.1000000000D+01  0.1000000000D+01
 Atom C6       Shell    39 SP   1    bf  145 -   148          8.340444587604         -0.127723283584         -4.374643077858
      0.1455850000D+00  0.1000000000D+01  0.1000000000D+01
 Atom C6       Shell    40 SP   1    bf  149 -   152          8.340444587604         -0.127723283584         -4.374643077858
      0.4380000000D-01  0.1000000000D+01  0.1000000000D+01
 Atom C6       Shell    41 D   1     bf  153 -   157          8.340444587604         -0.127723283584         -4.374643077858
      0.1252000000D+01  0.1000000000D+01
 Atom C6       Shell    42 D   1     bf  158 -   162          8.340444587604         -0.127723283584         -4.374643077858
      0.3130000000D+00  0.1000000000D+01
 Atom C7       Shell    43 S   6     bf  163 -   163          4.764469680940         -6.905598074585         -2.362451543100
      0.4563240000D+04  0.1966650249D-02
      0.6820240000D+03  0.1523060193D-01
      0.1549730000D+03  0.7612690966D-01
      0.4445530000D+02  0.2608010331D+00
      0.1302900000D+02  0.6164620782D+00
      0.1827730000D+01  0.2210060280D+00
 Atom C7       Shell    44 SP   3    bf  164 -   167          4.764469680940         -6.905598074585         -2.362451543100
      0.2096420000D+02  0.1146600807D+00  0.4024869267D-01
      0.4803310000D+01  0.9199996477D+00  0.2375939567D+00
      0.1459330000D+01 -0.3030682134D-02  0.8158538515D+00
 Atom C7       Shell    45 SP   1    bf  168 -   171          4.764469680940         -6.905598074585         -2.362451543100
      0.4834560000D+00  0.1000000000D+01  0.1000000000D+01
 Atom C7       Shell    46 SP   1    bf  172 -   175          4.764469680940         -6.905598074585         -2.362451543100
      0.1455850000D+00  0.1000000000D+01  0.1000000000D+01
 Atom C7       Shell    47 SP   1    bf  176 -   179          4.764469680940         -6.905598074585         -2.362451543100
      0.4380000000D-01  0.1000000000D+01  0.1000000000D+01
 Atom C7       Shell    48 D   1     bf  180 -   184          4.764469680940         -6.905598074585         -2.362451543100
      0.1252000000D+01  0.1000000000D+01
 Atom C7       Shell    49 D   1     bf  185 -   189          4.764469680940         -6.905598074585         -2.362451543100
      0.3130000000D+00  0.1000000000D+01
 Atom C8       Shell    50 S   6     bf  190 -   190          2.422793474278         -6.881812029635         -1.323218835242
      0.4563240000D+04  0.1966650249D-02
      0.6820240000D+03  0.1523060193D-01
      0.1549730000D+03  0.7612690966D-01
      0.4445530000D+02  0.2608010331D+00
      0.1302900000D+02  0.6164620782D+00
      0.1827730000D+01  0.2210060280D+00
 Atom C8       Shell    51 SP   3    bf  191 -   194          2.422793474278         -6.881812029635         -1.323218835242
      0.2096420000D+02  0.1146600807D+00  0.4024869267D-01
      0.4803310000D+01  0.9199996477D+00  0.2375939567D+00
      0.1459330000D+01 -0.3030682134D-02  0.8158538515D+00
 Atom C8       Shell    52 SP   1    bf  195 -   198          2.422793474278         -6.881812029635         -1.323218835242
      0.4834560000D+00  0.1000000000D+01  0.1000000000D+01
 Atom C8       Shell    53 SP   1    bf  199 -   202          2.422793474278         -6.881812029635         -1.323218835242
      0.1455850000D+00  0.1000000000D+01  0.1000000000D+01
 Atom C8       Shell    54 SP   1    bf  203 -   206          2.422793474278         -6.881812029635         -1.323218835242
      0.4380000000D-01  0.1000000000D+01  0.1000000000D+01
 Atom C8       Shell    55 D   1     bf  207 -   211          2.422793474278         -6.881812029635         -1.323218835242
      0.1252000000D+01  0.1000000000D+01
 Atom C8       Shell    56 D   1     bf  212 -   216          2.422793474278         -6.881812029635         -1.323218835242
      0.3130000000D+00  0.1000000000D+01
 Atom C9       Shell    57 S   6     bf  217 -   217          1.246241764815         -4.592706529493         -0.554060459071
      0.4563240000D+04  0.1966650249D-02
      0.6820240000D+03  0.1523060193D-01
      0.1549730000D+03  0.7612690966D-01
      0.4445530000D+02  0.2608010331D+00
      0.1302900000D+02  0.6164620782D+00
      0.1827730000D+01  0.2210060280D+00
 Atom C9       Shell    58 SP   3    bf  218 -   221          1.246241764815         -4.592706529493         -0.554060459071
      0.2096420000D+02  0.1146600807D+00  0.4024869267D-01
      0.4803310000D+01  0.9199996477D+00  0.2375939567D+00
      0.1459330000D+01 -0.3030682134D-02  0.8158538515D+00
 Atom C9       Shell    59 SP   1    bf  222 -   225          1.246241764815         -4.592706529493         -0.554060459071
      0.4834560000D+00  0.1000000000D+01  0.1000000000D+01
 Atom C9       Shell    60 SP   1    bf  226 -   229          1.246241764815         -4.592706529493         -0.554060459071
      0.1455850000D+00  0.1000000000D+01  0.1000000000D+01
 Atom C9       Shell    61 SP   1    bf  230 -   233          1.246241764815         -4.592706529493         -0.554060459071
      0.4380000000D-01  0.1000000000D+01  0.1000000000D+01
 Atom C9       Shell    62 D   1     bf  234 -   238          1.246241764815         -4.592706529493         -0.554060459071
      0.1252000000D+01  0.1000000000D+01
 Atom C9       Shell    63 D   1     bf  239 -   243          1.246241764815         -4.592706529493         -0.554060459071
      0.3130000000D+00  0.1000000000D+01
 Atom C10      Shell    64 S   6     bf  244 -   244          2.557285935161         -2.302015040824         -0.813452445238
      0.4563240000D+04  0.1966650249D-02
      0.6820240000D+03  0.1523060193D-01
      0.1549730000D+03  0.7612690966D-01
      0.4445530000D+02  0.2608010331D+00
      0.1302900000D+02  0.6164620782D+00
      0.1827730000D+01  0.2210060280D+00
 Atom C10      Shell    65 SP   3    bf  245 -   248          2.557285935161         -2.302015040824         -0.813452445238
      0.2096420000D+02  0.1146600807D+00  0.4024869267D-01
      0.4803310000D+01  0.9199996477D+00  0.2375939567D+00
      0.1459330000D+01 -0.3030682134D-02  0.8158538515D+00
 Atom C10      Shell    66 SP   1    bf  249 -   252          2.557285935161         -2.302015040824         -0.813452445238
      0.4834560000D+00  0.1000000000D+01  0.1000000000D+01
 Atom C10      Shell    67 SP   1    bf  253 -   256          2.557285935161         -2.302015040824         -0.813452445238
      0.1455850000D+00  0.1000000000D+01  0.1000000000D+01
 Atom C10      Shell    68 SP   1    bf  257 -   260          2.557285935161         -2.302015040824         -0.813452445238
      0.4380000000D-01  0.1000000000D+01  0.1000000000D+01
 Atom C10      Shell    69 D   1     bf  261 -   265          2.557285935161         -2.302015040824         -0.813452445238
      0.1252000000D+01  0.1000000000D+01
 Atom C10      Shell    70 D   1     bf  266 -   270          2.557285935161         -2.302015040824         -0.813452445238
      0.3130000000D+00  0.1000000000D+01
 Atom C11      Shell    71 S   6     bf  271 -   271         -1.246287947584         -4.592643385658          0.554210201829
      0.4563240000D+04  0.1966650249D-02
      0.6820240000D+03  0.1523060193D-01
      0.1549730000D+03  0.7612690966D-01
      0.4445530000D+02  0.2608010331D+00
      0.1302900000D+02  0.6164620782D+00
      0.1827730000D+01  0.2210060280D+00
 Atom C11      Shell    72 SP   3    bf  272 -   275         -1.246287947584         -4.592643385658          0.554210201829
      0.2096420000D+02  0.1146600807D+00  0.4024869267D-01
      0.4803310000D+01  0.9199996477D+00  0.2375939567D+00
      0.1459330000D+01 -0.3030682134D-02  0.8158538515D+00
 Atom C11      Shell    73 SP   1    bf  276 -   279         -1.246287947584         -4.592643385658          0.554210201829
      0.4834560000D+00  0.1000000000D+01  0.1000000000D+01
 Atom C11      Shell    74 SP   1    bf  280 -   283         -1.246287947584         -4.592643385658          0.554210201829
      0.1455850000D+00  0.1000000000D+01  0.1000000000D+01
 Atom C11      Shell    75 SP   1    bf  284 -   287         -1.246287947584         -4.592643385658          0.554210201829
      0.4380000000D-01  0.1000000000D+01  0.1000000000D+01
 Atom C11      Shell    76 D   1     bf  288 -   292         -1.246287947584         -4.592643385658          0.554210201829
      0.1252000000D+01  0.1000000000D+01
 Atom C11      Shell    77 D   1     bf  293 -   297         -1.246287947584         -4.592643385658          0.554210201829
      0.3130000000D+00  0.1000000000D+01
 Atom C12      Shell    78 S   6     bf  298 -   298         -2.557193590359         -2.301884818360          0.813613953116
      0.4563240000D+04  0.1966650249D-02
      0.6820240000D+03  0.1523060193D-01
      0.1549730000D+03  0.7612690966D-01
      0.4445530000D+02  0.2608010331D+00
      0.1302900000D+02  0.6164620782D+00
      0.1827730000D+01  0.2210060280D+00
 Atom C12      Shell    79 SP   3    bf  299 -   302         -2.557193590359         -2.301884818360          0.813613953116
      0.2096420000D+02  0.1146600807D+00  0.4024869267D-01
      0.4803310000D+01  0.9199996477D+00  0.2375939567D+00
      0.1459330000D+01 -0.3030682134D-02  0.8158538515D+00
 Atom C12      Shell    80 SP   1    bf  303 -   306         -2.557193590359         -2.301884818360          0.813613953116
      0.4834560000D+00  0.1000000000D+01  0.1000000000D+01
 Atom C12      Shell    81 SP   1    bf  307 -   310         -2.557193590359         -2.301884818360          0.813613953116
      0.1455850000D+00  0.1000000000D+01  0.1000000000D+01
 Atom C12      Shell    82 SP   1    bf  311 -   314         -2.557193590359         -2.301884818360          0.813613953116
      0.4380000000D-01  0.1000000000D+01  0.1000000000D+01
 Atom C12      Shell    83 D   1     bf  315 -   319         -2.557193590359         -2.301884818360          0.813613953116
      0.1252000000D+01  0.1000000000D+01
 Atom C12      Shell    84 D   1     bf  320 -   324         -2.557193590359         -2.301884818360          0.813613953116
      0.3130000000D+00  0.1000000000D+01
 Atom C13      Shell    85 S   6     bf  325 -   325         -1.325707583827          0.000028770742         -0.000238205757
      0.4563240000D+04  0.1966650249D-02
      0.6820240000D+03  0.1523060193D-01
      0.1549730000D+03  0.7612690966D-01
      0.4445530000D+02  0.2608010331D+00
      0.1302900000D+02  0.6164620782D+00
      0.1827730000D+01  0.2210060280D+00
 Atom C13      Shell    86 SP   3    bf  326 -   329         -1.325707583827          0.000028770742         -0.000238205757
      0.2096420000D+02  0.1146600807D+00  0.4024869267D-01
      0.4803310000D+01  0.9199996477D+00  0.2375939567D+00
      0.1459330000D+01 -0.3030682134D-02  0.8158538515D+00
 Atom C13      Shell    87 SP   1    bf  330 -   333         -1.325707583827          0.000028770742         -0.000238205757
      0.4834560000D+00  0.1000000000D+01  0.1000000000D+01
 Atom C13      Shell    88 SP   1    bf  334 -   337         -1.325707583827          0.000028770742         -0.000238205757
      0.1455850000D+00  0.1000000000D+01  0.1000000000D+01
 Atom C13      Shell    89 SP   1    bf  338 -   341         -1.325707583827          0.000028770742         -0.000238205757
      0.4380000000D-01  0.1000000000D+01  0.1000000000D+01
 Atom C13      Shell    90 D   1     bf  342 -   346         -1.325707583827          0.000028770742         -0.000238205757
      0.1252000000D+01  0.1000000000D+01
 Atom C13      Shell    91 D   1     bf  347 -   351         -1.325707583827          0.000028770742         -0.000238205757
      0.3130000000D+00  0.1000000000D+01
 Atom C14      Shell    92 S   6     bf  352 -   352          1.325778248072          0.000055848805          0.000059050203
      0.4563240000D+04  0.1966650249D-02
      0.6820240000D+03  0.1523060193D-01
      0.1549730000D+03  0.7612690966D-01
      0.4445530000D+02  0.2608010331D+00
      0.1302900000D+02  0.6164620782D+00
      0.1827730000D+01  0.2210060280D+00
 Atom C14      Shell    93 SP   3    bf  353 -   356          1.325778248072          0.000055848805          0.000059050203
      0.2096420000D+02  0.1146600807D+00  0.4024869267D-01
      0.4803310000D+01  0.9199996477D+00  0.2375939567D+00
      0.1459330000D+01 -0.3030682134D-02  0.8158538515D+00
 Atom C14      Shell    94 SP   1    bf  357 -   360          1.325778248072          0.000055848805          0.000059050203
      0.4834560000D+00  0.1000000000D+01  0.1000000000D+01
 Atom C14      Shell    95 SP   1    bf  361 -   364          1.325778248072          0.000055848805          0.000059050203
      0.1455850000D+00  0.1000000000D+01  0.1000000000D+01
 Atom C14      Shell    96 SP   1    bf  365 -   368          1.325778248072          0.000055848805          0.000059050203
      0.4380000000D-01  0.1000000000D+01  0.1000000000D+01
 Atom C14      Shell    97 D   1     bf  369 -   373          1.325778248072          0.000055848805          0.000059050203
      0.1252000000D+01  0.1000000000D+01
 Atom C14      Shell    98 D   1     bf  374 -   378          1.325778248072          0.000055848805          0.000059050203
      0.3130000000D+00  0.1000000000D+01
 Atom C15      Shell    99 S   6     bf  379 -   379         -2.557087300052          2.301944952164         -0.813852432858
      0.4563240000D+04  0.1966650249D-02
      0.6820240000D+03  0.1523060193D-01
      0.1549730000D+03  0.7612690966D-01
      0.4445530000D+02  0.2608010331D+00
      0.1302900000D+02  0.6164620782D+00
      0.1827730000D+01  0.2210060280D+00
 Atom C15      Shell   100 SP   3    bf  380 -   383         -2.557087300052          2.301944952164         -0.813852432858
      0.2096420000D+02  0.1146600807D+00  0.4024869267D-01
      0.4803310000D+01  0.9199996477D+00  0.2375939567D+00
      0.1459330000D+01 -0.3030682134D-02  0.8158538515D+00
 Atom C15      Shell   101 SP   1    bf  384 -   387         -2.557087300052          2.301944952164         -0.813852432858
      0.4834560000D+00  0.1000000000D+01  0.1000000000D+01
 Atom C15      Shell   102 SP   1    bf  388 -   391         -2.557087300052          2.301944952164         -0.813852432858
      0.1455850000D+00  0.1000000000D+01  0.1000000000D+01
 Atom C15      Shell   103 SP   1    bf  392 -   395         -2.557087300052          2.301944952164         -0.813852432858
      0.4380000000D-01  0.1000000000D+01  0.1000000000D+01
 Atom C15      Shell   104 D   1     bf  396 -   400         -2.557087300052          2.301944952164         -0.813852432858
      0.1252000000D+01  0.1000000000D+01
 Atom C15      Shell   105 D   1     bf  401 -   405         -2.557087300052          2.301944952164         -0.813852432858
      0.3130000000D+00  0.1000000000D+01
 Atom C16      Shell   106 S   6     bf  406 -   406         -1.246458911668          4.592802025701         -0.553884900375
      0.4563240000D+04  0.1966650249D-02
      0.6820240000D+03  0.1523060193D-01
      0.1549730000D+03  0.7612690966D-01
      0.4445530000D+02  0.2608010331D+00
      0.1302900000D+02  0.6164620782D+00
      0.1827730000D+01  0.2210060280D+00
 Atom C16      Shell   107 SP   3    bf  407 -   410         -1.246458911668          4.592802025701         -0.553884900375
      0.2096420000D+02  0.1146600807D+00  0.4024869267D-01
      0.4803310000D+01  0.9199996477D+00  0.2375939567D+00
      0.1459330000D+01 -0.3030682134D-02  0.8158538515D+00
 Atom C16      Shell   108 SP   1    bf  411 -   414         -1.246458911668          4.592802025701         -0.553884900375
      0.4834560000D+00  0.1000000000D+01  0.1000000000D+01
 Atom C16      Shell   109 SP   1    bf  415 -   418         -1.246458911668          4.592802025701         -0.553884900375
      0.1455850000D+00  0.1000000000D+01  0.1000000000D+01
 Atom C16      Shell   110 SP   1    bf  419 -   422         -1.246458911668          4.592802025701         -0.553884900375
      0.4380000000D-01  0.1000000000D+01  0.1000000000D+01
 Atom C16      Shell   111 D   1     bf  423 -   427         -1.246458911668          4.592802025701         -0.553884900375
      0.1252000000D+01  0.1000000000D+01
 Atom C16      Shell   112 D   1     bf  428 -   432         -1.246458911668          4.592802025701         -0.553884900375
      0.3130000000D+00  0.1000000000D+01
 Atom C17      Shell   113 S   6     bf  433 -   433          1.246245275705          4.592868934560          0.553667899932
      0.4563240000D+04  0.1966650249D-02
      0.6820240000D+03  0.1523060193D-01
      0.1549730000D+03  0.7612690966D-01
      0.4445530000D+02  0.2608010331D+00
      0.1302900000D+02  0.6164620782D+00
      0.1827730000D+01  0.2210060280D+00
[...]
 89,-0.00004732,0.00002128,-0.00001658,-0.00001872,0.00010818,-0.000337
 29,0.00015529,-0.00010569,-0.00002580,-0.00001591,0.00009537,0.0000107
 0,0.00000418,0.00000134,0.00000370,-0.00000631,0.00000487,0.00001247,-
 0.00001200,-0.00002837,-0.00007411,-0.00016958,-0.00022174,-0.00008258
 ,-0.00020448,0.00001224,-0.00000378,0.00000647,0.00000869,-0.00001056,
 -0.00002925,-0.00004616,0.01970827,-0.00595634,-0.02223014,-0.00339640
 ,-0.00194476,-0.00484339,0.00106385,0.00065823,0.00027788,-0.00170748,
 -0.00054983,0.00002785,0.00125431,-0.00145844,-0.00121141,0.06273156,-
 0.11831793,-0.09385844,0.00029568,0.00001793,-0.00003647,0.00016338,-0
 .00053667,0.00001755,-0.00006879,0.00004482,-0.00001080,0.00005919,-0.
 00015613,0.00012164,0.08934667,0.44668917,0.00000374,0.00003841,0.0001
 9900,0.00022541,0.00011146,-0.00039013,-0.00002811,-0.00019875,-0.0001
 4603,0.00000450,0.00001585,0.00010754,-0.00011275,-0.00008015,-0.00003
 303,0.00004867,0.00007178,-0.00012226,0.00009914,0.00011204,0.00019103
 ,0.00007650,-0.00000640,-0.00008662,0.00015293,0.00025024,0.00104746,-
 0.00149173,-0.00108572,0.00012752,0.00006183,0.00066432,-0.00097202,-0
 .00121899,-0.00099373,-0.00040580,0.00279751,-0.00433120,-0.00218084,0
 .00101602,0.00282173,0.00097085,-0.02604985,-0.00561570,0.01301594,-0.
 01163294,-0.03199811,-0.08863649,0.02790100,0.00974845,-0.00224726,0.0
 0093461,-0.00633823,-0.00206459,0.00094933,0.00204745,0.00071063,0.001
 13426,0.00010240,-0.00056641,-0.00075449,-0.00022756,0.00004999,0.0006
 0696,0.00076154,0.00047145,0.00031021,0.00000007,-0.00021179,-0.000171
 43,-0.00024418,-0.00006886,-0.00000985,0.00015423,0.00016834,0.0003935
 1,-0.00018649,-0.00023368,0.00001283,-0.00001294,-0.00000778,-0.000019
 68,-0.00002476,0.00002333,-0.00003019,0.00002993,-0.00003147,0.0000276
 8,0.00000547,-0.00003172,-0.00000311,-0.00000691,-0.00001551,0.0000145
 4,-0.00001441,-0.00002296,0.00006524,-0.00007227,0.00005155,0.00181403
 ,-0.00072325,-0.00108877,0.01222247,0.00124339,-0.00804915,-0.00012516
 ,-0.00016422,0.00047567,0.00001027,0.00000690,-0.00000097,-0.00001803,
 0.00001892,-0.00000037,0.00001407,0.00000179,-0.00000077,-0.00000317,0
 .00000319,-0.00001003,-0.00017402,-0.00009655,-0.00007671,-0.00001830,
 -0.00000348,-0.00003099,-0.00001643,-0.00009913,0.00006807,0.00005854,
 0.00008502,0.00013033,0.00015888,-0.00016842,0.00003257,0.00014918,0.0
 0018618,-0.00008298,0.00001128,0.00000306,0.00000136,-0.00000672,0.000
 00917,0.00001532,0.00000986,-0.00002813,0.00000251,0.00000436,0.000151
 28,0.00014898,-0.00008885,-0.00006989,0.00020846,0.00001711,-0.0000054
 6,0.00000482,-0.00000925,-0.00001511,-0.00003544,0.01469018,-0.0316698
 2,-0.03044447,-0.00622624,0.00101759,0.00846977,-0.00378516,-0.0061983
 8,-0.00283881,0.00559039,0.00048301,-0.00179000,-0.00090191,0.00322008
 ,0.00236174,0.17377552,-0.07707305,-0.22825535,0.00021969,0.00027598,0
 .00007239,-0.00021028,-0.00014791,-0.00059106,0.00006948,0.00003161,-0
 .00004257,-0.00008128,0.00005236,-0.00009506,-0.15370960,0.28951962,0.
 51292684,-0.00000383,-0.00000543,-0.00000751,-0.00002876,0.00002575,0.
 00000766,0.00003582,-0.00001760,0.00001023,-0.00000752,0.00001519,-0.0
 0000780,0.00000169,0.00001410,0.00000343,0.00001291,-0.00003628,-0.000
 00120,0.00000386,-0.00001317,-0.00000501,-0.00001554,0.00001475,0.0000
 0395,0.00001047,0.00001512,-0.00002503,0.00004179,0.00000128,0.0000154
 6,-0.00003625,-0.00001507,-0.00001998,0.00003322,-0.00003079,0.0000579
 0,-0.00019759,0.00018633,-0.00025389,0.00004280,-0.00001158,0.00001083
 ,0.00029027,0.00047394,-0.00006459,0.00047123,0.00027043,0.00483506,-0
 .00066617,-0.00074012,-0.00035026,-0.00026035,0.00027694,0.00012913,-0
 .00000153,-0.00011017,0.00004933,-0.00004578,0.00003558,0.00001561,0.0
 0003470,0.00000303,0.00003430,-0.00004331,-0.00010027,-0.00003487,-0.0
 0002307,0.00000325,-0.00002766,0.00000456,-0.00001328,0.00003172,-0.00
 002979,0.00001061,-0.00003365,0.00000061,0.00004449,0.00005507,-0.0000
 0362,0.00000207,-0.00000093,-0.00001303,0.00000664,-0.00001435,-0.0000
 0165,-0.00000003,-0.00000120,-0.00000768,-0.00000204,0.00000471,-0.000
 00189,0.00000039,0.00000193,-0.00000018,0.00000294,0.00001024,-0.00001
 391,0.00001627,0.00001999,-0.00002609,-0.00001777,0.00000624,0.0015802
 9,-0.00110451,0.00047774,-0.00002069,-0.00000895,0.00000298,-0.0000030
 4,-0.00000535,-0.00000680,-0.00000574,-0.00000095,0.00000102,0.0000015
 0,-0.00000522,0.00000053,-0.00000678,0.00000047,0.00000524,0.00001902,
 0.00001613,0.00000036,0.00000443,0.00000427,0.00001301,0.00001797,-0.0
 0000376,0.00000051,-0.00004450,-0.00000842,-0.00001384,-0.00001120,0.0
 0000271,0.00001692,-0.00002153,-0.00001451,-0.00001074,0.00000140,0.00
 000224,-0.00000066,-0.00000468,-0.00000008,-0.00000835,0.00000761,0.00
 000208,-0.00001265,0.00000305,-0.00002112,0.00003875,0.00001806,0.0000
 0213,-0.00000170,-0.00000074,0.00000392,0.00000047,0.00000468,-0.00000
 872,-0.00000477,-0.00251103,-0.00113040,0.00149909,0.00054122,0.002036
 09,0.00027938,-0.00001595,-0.00033746,-0.00027017,0.00030562,0.0001240
 4,-0.00009902,-0.00041304,0.00017362,0.00027662,-0.27715656,-0.1181233
 9,0.00425593,0.00043749,-0.00043016,-0.00041290,0.00001831,-0.00006123
 ,0.00001164,0.00003679,-0.00001514,-0.00000434,0.00000653,-0.00010355,
 -0.00004005,-0.01592538,-0.01151294,-0.00180507,0.29332825,-0.00000767
 ,-0.00001651,0.00000112,0.00001197,0.00004588,-0.00001106,0.00002094,-
 0.00002740,-0.00000835,-0.00000465,0.00000666,0.00000267,-0.00000490,0
 .00000681,0.00000406,0.00001734,-0.00001200,-0.00000081,0.00000181,-0.
 00000193,0.00002650,0.00001099,0.00002945,-0.00002741,0.00001794,-0.00
 001875,0.00004794,-0.00007480,-0.00002880,0.00001329,0.00001377,0.0000
 6663,-0.00005695,0.00000393,0.00004077,-0.00004845,0.00022176,-0.00025
 054,0.00036279,0.00006107,0.00004398,-0.00006877,0.00050312,-0.0007046
 7,-0.00007272,-0.00040661,0.00418726,-0.00458307,0.00023263,0.00021919
 ,-0.00010546,0.00023944,-0.00006630,0.00027545,-0.00002850,0.00010456,
 -0.00002006,0.00004142,-0.00001514,-0.00004174,-0.00005634,-0.00000936
 ,0.00000514,0.00000833,-0.00000468,0.00001016,0.00001320,0.00001227,-0
 .00002316,-0.00000766,-0.00003236,0.00001784,-0.00001619,0.00001731,-0
 .00000243,0.00004821,-0.00000195,0.00001946,-0.00000635,0.00000049,-0.
 00000215,-0.00001292,0.00000755,-0.00000054,-0.00000355,0.00000321,-0.
 00000182,0.00000290,0.00000326,-0.00000100,0.00000299,-0.00000124,-0.0
 0000358,-0.00000148,-0.00000312,-0.00000036,0.00001013,-0.00000251,0.0
 0000649,-0.00000147,0.00000189,-0.00001886,0.00074698,-0.00109879,-0.0
 0519591,-0.00000047,-0.00002525,0.00001853,-0.00000045,0.00000093,-0.0
 0000386,-0.00000742,-0.00000130,0.00000128,0.00000036,-0.00000303,0.00
 000041,-0.00000605,0.00000039,0.00000543,0.00000404,-0.00000740,0.0000
 0614,0.00000210,0.00000653,-0.00001168,-0.00000298,-0.00003026,0.00000
 832,-0.00001544,0.00001817,0.00000111,-0.00001977,0.00000624,0.0000076
 4,0.00000709,0.00000931,-0.00001039,0.00000024,0.00000363,0.00000386,-
 0.00000260,0.00000098,0.00000086,0.00000404,-0.00000303,0.00000760,-0.
 00000437,0.00000473,-0.00000839,-0.00000114,0.00000242,0.00001144,0.00
 000027,0.00000287,0.00000294,0.00000316,-0.00000277,-0.00000158,-0.021
 99768,-0.00730472,0.00051783,-0.00073009,-0.00014608,0.00237879,0.0003
 7276,0.00005303,0.00001814,0.00002962,0.00004712,0.00004535,-0.0013860
 8,-0.00021973,0.00040592,-0.11796338,-0.10570254,-0.01027501,0.0008403
 5,0.00011836,-0.00048125,-0.00002024,0.00001541,-0.00008817,0.00005877
 ,0.00002768,-0.00004695,0.00004270,-0.00033360,-0.00025723,0.00933993,
 0.00780378,-0.00076741,0.12861541,0.10511048,-0.00000385,0.00000859,-0
 .00001624,-0.00002899,-0.00002405,0.00002536,-0.00000376,0.00002056,0.
 00001900,0.00000064,0.00000006,-0.00001035,0.00000734,0.00000212,-0.00
 000200,-0.00000908,-0.00000220,0.00000685,0.00000533,0.00000504,-0.000
 02706,-0.00002115,-0.00002129,0.00002414,0.00000163,0.00003073,-0.0000
 8387,0.00009881,0.00004370,0.00004403,-0.00001908,-0.00004583,0.000065
 40,0.00007899,-0.00001015,0.00004525,-0.00049368,0.00040211,-0.0002646
 2,-0.00001712,-0.00030534,-0.00003416,0.00024082,0.00012397,-0.0008619
 6,0.00451206,-0.00568919,0.00087163,0.00059627,0.00079647,0.00074904,0
 .00012220,0.00001031,-0.00050811,0.00000522,-0.00007394,0.00001579,-0.
 00012650,-0.00002460,0.00003079,0.00009759,0.00002503,0.00000679,0.000
 06687,0.00014513,-0.00006129,-0.00003742,-0.00000617,0.00002777,0.0000
 3057,0.00003011,-0.00000521,0.00002689,-0.00001336,-0.00001333,-0.0000
 2432,-0.00003527,-0.00003541,0.00000415,-0.00000048,0.00000019,0.00001
 305,-0.00000853,0.00000678,0.00000227,-0.00000150,0.00000355,0.0000017
 3,-0.00000424,-0.00000297,-0.00000038,0.00000100,0.00000149,0.00000257
 ,-0.00000161,-0.00000042,0.00000612,-0.00000694,-0.00001695,0.00001130
 ,-0.00004387,0.00001187,0.00054510,-0.00460389,0.00013574,0.00000384,0
 .00002722,-0.00004680,0.00000295,0.00000050,0.00000122,0.00000567,0.00
 000138,-0.00000149,0.00000168,0.00000135,-0.00000035,0.00000436,0.0000
 0123,-0.00000480,0.00002185,0.00003076,0.00001875,-0.00000118,-0.00000
 152,0.00000684,0.00000816,0.00001489,-0.00000740,-0.00000859,-0.000024
 61,0.00000617,-0.00002301,0.00000888,0.00000760,-0.00001198,-0.0000154
 0,0.00002015,0.00000020,-0.00000149,-0.00000336,-0.00000078,-0.0000013
 9,-0.00000480,-0.00000445,0.00000751,-0.00001147,0.00001343,-0.0000345
 9,-0.00000706,0.00000415,-0.00000645,-0.00002003,-0.00000060,-0.000002
 03,-0.00000064,0.00000058,0.00000046,-0.00000041,-0.01753430,-0.007982
 43,0.00357910,-0.00201748,0.00119874,-0.00060468,0.00026044,0.00027260
 ,-0.00000376,-0.00014319,0.00004733,0.00003351,-0.00098013,-0.00032501
 ,0.00016290,0.00359750,-0.01119713,-0.04827147,0.00071076,0.00005010,0
 .00001085,0.00003283,-0.00003694,0.00005786,0.00005825,0.00000181,0.00
 001021,-0.00001360,-0.00034046,-0.00008902,0.01924097,0.00949668,0.004
 09668,-0.00736692,0.01516391,0.04258454,-0.00002657,-0.00001246,0.0000
 0023,-0.00001564,0.00000013,-0.00002815,-0.00000193,-0.00002019,-0.000
 00895,0.00000103,0.00001168,0.00000079,-0.00000363,0.00000345,0.000007
 01,0.00000566,0.00001548,0.00001671,-0.00002255,-0.00003030,0.00001757
 ,0.00002500,0.00003619,0.00000560,-0.00002125,-0.00003931,0.00000424,0
 .00001813,0.00009570,0.00004246,-0.00004037,0.00000987,-0.00013653,-0.
 00037718,-0.00019261,0.00017679,0.00027362,-0.00060774,-0.00136901,0.0
 0002835,0.00000497,-0.00006915,-0.00464969,-0.00211092,0.00243043,-0.0
 0059672,-0.01987356,-0.01941067,0.00118393,0.00089552,-0.00071588,0.00
 012811,-0.00005924,0.00010555,-0.00214918,-0.00097644,0.00037284,0.000
 40418,0.00066794,0.00022078,0.00006497,-0.00008108,-0.00013493,0.00013
 511,0.00007669,-0.00007461,0.00004989,0.00010163,0.00004678,0.00002458
 ,0.00001652,0.00002735,0.00007264,0.00002625,-0.00001971,-0.00003244,-
 0.00003017,-0.00001537,0.00000454,-0.00000731,0.00000366,0.00001675,-0
 .00001963,-0.00000219,0.00003452,0.00000636,0.00000358,0.00000856,0.00
 000161,0.00000035,0.00002058,0.00000465,-0.00000621,-0.00001397,-0.000
 00367,0.00000872,-0.00001581,-0.00001974,0.00002824,-0.00230486,0.0024
 3361,0.00235753,-0.00053836,0.00032006,0.00016168,-0.00000244,-0.00000
 926,0.00003686,0.00000002,-0.00000193,-0.00000291,0.00000060,-0.000000
 66,0.00000228,0.00000161,-0.00000151,0.00000083,0.00000260,-0.00000099
 ,0.00000152,0.00000677,0.00001109,-0.00000960,0.00000130,0.00000393,-0
 .00000786,-0.00000439,-0.00000634,-0.00001478,-0.00001799,-0.00000767,
 -0.00000073,-0.00001123,0.00003141,-0.00002178,0.00000533,0.00001261,0
 .00000189,0.00000125,0.00000064,-0.00000239,-0.00000044,-0.00000158,-0
 .00000296,0.00000590,0.00000098,-0.00000572,0.00001591,-0.00003398,0.0
 0002731,-0.00002171,-0.00004550,0.00003338,-0.00000097,0.00000014,-0.0
 0000198,-0.00000462,-0.00001171,-0.00001390,-0.00199496,-0.00107758,0.
 00481487,0.00054922,0.00065740,0.00025153,-0.00027812,0.00030007,0.000
 00218,-0.00010780,-0.00010676,0.00004323,0.00011922,0.00010034,-0.0002
 9650,0.00791997,0.01760291,0.01669759,-0.00001241,-0.00006184,0.000056
 35,0.00000858,0.00008611,0.00005811,0.00001930,-0.00001343,0.00001152,
 -0.00000373,0.00002316,0.00002874,-0.06726390,-0.05089690,-0.03694914,
 0.00025228,0.00123955,-0.00155359,0.06912484,-0.00000074,-0.00001843,0
 .00003383,-0.00000257,-0.00002618,-0.00005552,-0.00000535,-0.00001007,
 -0.00000475,0.00001116,0.00001320,0.00000823,-0.00000529,-0.00001386,0
 .00001036,0.00000114,0.00000149,-0.00000801,-0.00001310,-0.00001829,0.
 00000224,0.00001757,0.00000614,0.00002943,-0.00001758,0.00000288,0.000
 02123,-0.00004588,0.00002332,-0.00001706,-0.00001442,-0.00000449,-0.00
 008587,-0.00022785,-0.00006927,0.00019337,0.00019037,-0.00022591,-0.00
 066110,-0.00005953,0.00009354,0.00004238,-0.00264859,0.00149726,-0.001
 65598,-0.00130274,-0.00626619,-0.00826841,0.00135514,-0.00201504,-0.00
 036006,-0.00028125,-0.00019637,0.00013854,0.00174623,-0.00033375,-0.00
 064198,0.00017351,0.00024458,0.00036926,0.00010787,0.00002190,-0.00011
 089,0.00003578,-0.00002811,-0.00013551,-0.00002543,0.00005489,-0.00000
 306,0.00002470,0.00003149,0.00001915,0.00003461,-0.00002097,-0.0000203
 9,-0.00006427,0.00000939,0.00001955,0.00000020,0.00000044,0.00001492,-
 0.00001415,0.00000300,-0.00002076,0.00001275,0.00000608,-0.00000975,-0
 .00000588,0.00000050,-0.00000064,0.00000588,-0.00000097,0.00000751,-0.
 00000705,0.00000806,0.00000090,0.00000278,-0.00001277,-0.00001971,0.00
 237557,0.00058177,-0.00138374,-0.00041472,0.00001702,0.00104990,-0.000
 00093,-0.00001104,0.00002975,-0.00000203,-0.00000151,-0.00000272,0.000
 00202,0.00000186,0.00000251,-0.00000027,0.00000093,0.00000147,0.000000
 24,0.00000012,-0.00000039,0.00000527,-0.00000203,0.00000019,0.00000070
 ,-0.00000260,-0.00000059,0.00000539,0.00000156,-0.00000241,-0.00000447
 ,-0.00000470,-0.00000147,0.00002554,0.00002486,0.00000091,-0.00000375,
 0.00000056,0.00000122,-0.00000399,-0.00000287,-0.00000551,0.00000035,0
 .00000027,-0.00000674,0.00000109,0.00000176,0.00000022,-0.00001819,-0.
 00001172,0.00001222,-0.00000340,-0.00002603,0.00001274,-0.00000307,-0.
 00000127,-0.00000467,-0.00000621,-0.00000816,-0.00000889,-0.00087100,0
 .00538364,-0.00437147,-0.00003676,-0.00034809,-0.00038495,0.00048298,-
 0.00007400,0.00040264,-0.00030058,0.00006473,0.00002942,0.00023876,-0.
 00045641,0.00019286,-0.00281182,-0.00320098,-0.00645268,-0.00002762,0.
 00007557,-0.00011806,0.00000248,-0.00002669,-0.00000035,-0.00001282,0.
 00001227,-0.00003974,-0.00000150,0.00000587,-0.00001834,-0.05076593,-0
 .19434453,-0.14457679,0.00160726,-0.00195346,0.00292159,0.05156339,0.2
 0154583,0.00000290,0.00000479,-0.00000343,-0.00000749,-0.00000574,-0.0
 0000106,-0.00000081,-0.00000469,-0.00000305,-0.00000152,-0.00000035,-0
 .00000036,-0.00000056,0.00000357,-0.00000335,0.00000127,0.00000208,0.0
 0000369,-0.00000627,-0.00000762,0.00000394,0.00000280,0.00001054,-0.00
 000188,-0.00000579,-0.00001910,0.00000703,0.00002982,0.00000170,0.0000
 0630,0.00000406,0.00002238,0.00000920,0.00004258,-0.00000191,-0.000052
 65,0.00020888,-0.00000660,0.00019675,-0.00003630,0.00004679,-0.0000436
 1,0.00097923,-0.00055826,0.00334786,-0.00101239,-0.00037679,0.00245255
 ,-0.00051601,0.00037771,-0.00124573,-0.00008213,0.00006953,0.00000784,
 0.00179912,-0.00037790,-0.00088898,0.00025895,0.00040026,-0.00017437,0
 .00000916,-0.00007016,-0.00005268,-0.00000943,-0.00006212,0.00009158,0
 .00007796,-0.00001352,0.00000812,-0.00002695,-0.00003546,-0.00001696,-
 0.00002270,0.00002528,0.00001134,0.00000938,0.00002679,-0.00000604,0.0
 0000134,0.00000094,-0.00000334,0.00000477,-0.00000096,-0.00000137,0.00
 000296,-0.00000310,0.00000273,0.00000036,-0.00000454,0.00000700,-0.000
 00183,0.00000657,-0.00000551,0.00000095,-0.00000192,0.00000626,0.00001
 081,-0.00003125,0.00001998,0.00267454,-0.00096085,0.00003131,0.0006242
 7,0.00044418,-0.00070517,-0.00002220,-0.00000793,0.00000699,-0.0000008
 4,-0.00000289,-0.00000119,-0.00000071,-0.00000205,0.00000069,-0.000001
 33,-0.00000167,-0.00000029,-0.00000015,-0.00000120,0.00000236,-0.00000
 477,0.00000703,-0.00000131,0.00000452,0.00000619,-0.00000021,-0.000005
 54,0.00000342,-0.00000781,-0.00000966,-0.00000928,0.00001148,-0.000019
 53,0.00000636,-0.00001804,-0.00000056,-0.00000056,-0.00000280,0.000002
 69,-0.00000107,-0.00000105,0.00000046,-0.00000138,-0.00000240,0.000006
 17,-0.00000101,-0.00000882,0.00003136,-0.00003098,0.00001871,0.0000024
 3,0.00001385,-0.00000244,0.00000072,-0.00000057,-0.00000129,0.00000155
 ,-0.00000092,0.00000132,0.00577121,-0.00370142,0.00243169,-0.00086112,
 -0.00068097,0.00000776,0.00004133,-0.00013186,-0.00069864,0.00042701,0
 .00005822,-0.00000180,-0.00030802,0.00044644,-0.00006576,-0.00602655,-
 0.01623608,-0.00950841,0.00008237,-0.00004811,0.00008109,-0.00002807,-
 0.00009432,-0.00008098,0.00000886,-0.00002795,0.00001458,-0.00001109,-
 0.00002402,0.00000531,-0.03558755,-0.14517415,-0.17424136,-0.00127705,
 0.00284816,-0.00166637,0.03276812,0.16389045,0.18072505\\-0.00000113,-
 0.00000497,0.00000811,0.00000460,0.00000586,-0.00000542,0.00000086,-0.
 00000046,-0.00000882,0.00000008,-0.00000017,0.00000670,-0.00000250,-0.
 00000274,-0.00000057,0.00000130,0.00000475,-0.00000416,0.00000226,0.00
 000365,-0.00000560,-0.00000559,-0.00000652,0.00001004,0.00000009,-0.00
 001143,0.00003072,-0.00001479,0.,0.00001111,0.00004106,0.00002612,0.00
 001309,0.00001167,0.00002265,-0.00001095,0.00000732,-0.00000469,0.0000
 0512,0.00001207,0.00001714,-0.00000489,0.00000643,-0.00001199,0.000011
 63,0.00000322,0.00001351,-0.00000866,0.00000790,0.00000304,-0.00001240
 ,-0.00000709,-0.00002119,-0.00000427,-0.00000366,0.00000150,0.00001279
 ,0.00000660,-0.00000046,-0.00000898,-0.00000166,0.00000123,0.00000255,
 -0.00000505,0.00000692,0.00000088,0.00000150,-0.00000115,-0.00000100,-
 0.00000048,-0.00000137,-0.00000216,0.00000001,-0.00000171,0.00000183,0
 .00000181,0.00000172,-0.00000103,0.00000087,0.00000032,-0.00000079,-0.
 00000024,-0.00000112,-0.00000113,0.00000372,-0.00000310,-0.00000085,-0
 .00000052,0.00000117,-0.00000095,-0.00000045,-0.00000036,0.00000078,-0
 .00000029,0.00000069,-0.00000017,0.00000207,-0.00000093,0.00000202,0.0
 0000046,-0.00000172,0.00000160,-0.00000773,0.00000526,-0.00000819,-0.0
 0002098,-0.00002045,0.00002855,0.00000345,0.00000110,0.00000132,0.0000
 0120,-0.00000069,0.00000191,-0.00000038,-0.00000041,-0.00000009,-0.000
 00132,-0.00000029,0.00000020,-0.00000444,-0.00000879,0.00001040,-0.000
 00878,-0.00000610,-0.00000533,0.00000470,0.00000771,-0.00000778,0.0000
 0423,0.00000168,-0.00000007,0.00002880,0.00001023,-0.00000584,-0.00000
 581,-0.00000362,-0.00001589,0.00000393,-0.00000203,-0.00000044,-0.0000
 0252,0.00000045,0.00000095,0.00000053,0.00000319,0.00000242,-0.0000010
 5,0.00000636,0.00000248,-0.00003606,-0.00003284,-0.00004241,0.00000044
 ,0.00000287,-0.00000366,0.00000101,0.00000668,-0.00000031,0.00000438,-
 0.00000411,-0.00000229,-0.00000312,0.00000270,0.00000245,-0.00000302,-
 0.00000454,-0.00000221,0.00000230,-0.00000028,-0.00000258,-0.00000667,
 0.00000217,0.00000617,-0.00001101,0.00000476,0.00000743,0.00000043,-0.
 00000132,0.00000150,0.00000057,-0.00000061,0.00000054,-0.00000015,-0.0
 0000026,-0.00000058,-0.00000448,0.00000393,0.00000053,-0.00000651,-0.0
 0001096,-0.00000182,-0.00000080,0.00000414,-0.00000174,-0.00000362,-0.
 00000014,-0.00000182\\\@


 TERENCE, THIS IS STUPID STUFF:
 YOU EAT YOUR VICTUALS FAST ENOUGH;
 THERE CAN'T BE MUCH AMISS, 'TIS CLEAR
 TO SEE THE RATE YOU DRINK YOUR BEER.
 BUT OH, GOOD LORD, THE VERSE YOU MAKE,
 IT GIVES A CHAP THE BELLY-ACHE.
 THE COW, THE OLD COW, SHE IS DEAD;
 IT SLEEPS WELL, THE HORNED HEAD:
 WE POOR LADS, 'TIS OUR TURN NOW
 TO HEAR SUCH TUNES AS KILLED THE COW.
 PRETTY FRIENDSHIP 'TIS TO RHYME
 YOUR FRIENDS TO DEATH BEFORE THEIR TIME.
 MOPING, MELANCHOLY MAD:
 COME PIPE A TUNE TO DANCE TO, LAD.

     -- A. E. HOUSMAN
 Job cpu time:      35 days 19 hours 48 minutes 29.0 seconds.
 File lengths (MBytes):  RWF=  36565 Int=      0 D2E=      0 Chk=    135 Scr=      1
 Normal termination of Gaussian 09 at Wed Oct 20 17:51:40 2021.
