 Entering Gaussian System, Link 0=g09
 Input=H2O_OPT_unrestricted.inp
 Output=H2O_OPT_unrestricted.log
 Initial command:
 /applis/g09/l1.exe "/tmp/Gau-12210.inp" -scrdir="/tmp/"
 Entering Link 1 = /applis/g09/l1.exe PID=     12212.
  
 Copyright (c) 1988,1990,1992,1993,1995,1998,2003,2009,2013,
            Gaussian, Inc.  All Rights Reserved.
  
 This is part of the Gaussian(R) 09 program.  It is based on
 the Gaussian(R) 03 system (copyright 2003, Gaussian, Inc.),
 the Gaussian(R) 98 system (copyright 1998, Gaussian, Inc.),
 the Gaussian(R) 94 system (copyright 1995, Gaussian, Inc.),
 the Gaussian 92(TM) system (copyright 1992, Gaussian, Inc.),
 the Gaussian 90(TM) system (copyright 1990, Gaussian, Inc.),
 the Gaussian 88(TM) system (copyright 1988, Gaussian, Inc.),
 the Gaussian 86(TM) system (copyright 1986, Carnegie Mellon
 University), and the Gaussian 82(TM) system (copyright 1983,
 Carnegie Mellon University). Gaussian is a federally registered
 trademark of Gaussian, Inc.
  
 This software contains proprietary and confidential information,
 including trade secrets, belonging to Gaussian, Inc.
  
 This software is provided under written license and may be
 used, copied, transmitted, or stored only in accord with that
 written license.
  
 The following legend is applicable only to US Government
 contracts under FAR:
  
                    RESTRICTED RIGHTS LEGEND
  
 Use, reproduction and disclosure by the US Government is
 subject to restrictions as set forth in subparagraphs (a)
 and (c) of the Commercial Computer Software - Restricted
 Rights clause in FAR 52.227-19.
  
 Gaussian, Inc.
 340 Quinnipiac St., Bldg. 40, Wallingford CT 06492
  
  
 ---------------------------------------------------------------
 Warning -- This program may not be used in any manner that
 competes with the business of Gaussian, Inc. or will provide
 assistance to any competitor of Gaussian, Inc.  The licensee
 of this program is prohibited from giving any competitor of
 Gaussian, Inc. access to this program.  By using this program,
 the user acknowledges that Gaussian, Inc. is engaged in the
 business of creating and licensing software in the field of
 computational chemistry and represents and warrants to the
 licensee that it is not a competitor of Gaussian, Inc. and that
 it will not use this program in any manner prohibited above.
 ---------------------------------------------------------------
  

 Cite this work as:
 Gaussian 09, Revision D.01,
 M. J. Frisch, G. W. Trucks, H. B. Schlegel, G. E. Scuseria, 
 M. A. Robb, J. R. Cheeseman, G. Scalmani, V. Barone, B. Mennucci, 
 G. A. Petersson, H. Nakatsuji, M. Caricato, X. Li, H. P. Hratchian, 
 A. F. Izmaylov, J. Bloino, G. Zheng, J. L. Sonnenberg, M. Hada, 
 M. Ehara, K. Toyota, R. Fukuda, J. Hasegawa, M. Ishida, T. Nakajima, 
 Y. Honda, O. Kitao, H. Nakai, T. Vreven, J. A. Montgomery, Jr., 
 J. E. Peralta, F. Ogliaro, M. Bearpark, J. J. Heyd, E. Brothers, 
 K. N. Kudin, V. N. Staroverov, T. Keith, R. Kobayashi, J. Normand, 
 K. Raghavachari, A. Rendell, J. C. Burant, S. S. Iyengar, J. Tomasi, 
 M. Cossi, N. Rega, J. M. Millam, M. Klene, J. E. Knox, J. B. Cross, 
 V. Bakken, C. Adamo, J. Jaramillo, R. Gomperts, R. E. Stratmann, 
 O. Yazyev, A. J. Austin, R. Cammi, C. Pomelli, J. W. Ochterski, 
 R. L. Martin, K. Morokuma, V. G. Zakrzewski, G. A. Voth, 
 P. Salvador, J. J. Dannenberg, S. Dapprich, A. D. Daniels, 
 O. Farkas, J. B. Foresman, J. V. Ortiz, J. Cioslowski, 
 and D. J. Fox, Gaussian, Inc., Wallingford CT, 2013.
 
 ******************************************
 Gaussian 09:  EM64L-G09RevD.01 24-Apr-2013
                27-May-2019 
 ******************************************
 %Chk=H2O_OPT_unrestricted
 %nprocshared=1
 Will use up to    1 processors via shared memory.
 %mem=1000MB
 ------------------------------------------
 #P OPT B3LYP svp Direct gfprint pop=(full)
 ------------------------------------------
 1/14=-1,18=20,19=15,26=3,38=1/1,3;
 2/9=110,12=2,17=6,18=5,40=1/2;
 3/5=18,7=101,11=2,16=1,24=100,25=1,30=1,71=1,74=-5/1,2,3;
 4//1;
 5/5=2,38=5/2;
 6/7=3,28=1/1;
 7//1,2,3,16;
 1/14=-1,18=20,19=15,26=3/3(2);
 2/9=110/2;
 99//99;
 2/9=110/2;
 3/5=18,7=101,11=2,16=1,25=1,30=1,71=1,74=-5/1,2,3;
 4/5=5,16=3,69=1/1;
 5/5=2,38=5/2;
 7//1,2,3,16;
 1/14=-1,18=20,19=15,26=3/3(-5);
 2/9=110/2;
 6/7=3,19=2,28=1/1;
 99/9=1/99;
 Leave Link    1 at Mon May 27 17:29:05 2019, MaxMem=   131072000 cpu:         0.0
 (Enter /applis/g09/l101.exe)
 --------------------
 OPT H20 B3LYP 6-31G*
 --------------------
 Symbolic Z-matrix:
 Charge =  0 Multiplicity = 3
 O                     0.        0.       -0.111 
 H                     0.        0.75941  -0.6945 
 H                     0.       -0.75941  -0.6945 
 
 NAtoms=      3 NQM=        3 NQMF=       0 NMMI=      0 NMMIF=      0
                NMic=       0 NMicF=      0.
                    Isotopes and Nuclear Properties:
 (Nuclear quadrupole moments (NQMom) in fm**2, nuclear magnetic moments (NMagM)
  in nuclear magnetons)

  Atom         1           2           3
 IAtWgt=          16           1           1
 AtmWgt=  15.9949146   1.0078250   1.0078250
 NucSpn=           0           1           1
 AtZEff=   0.0000000   0.0000000   0.0000000
 NQMom=    0.0000000   0.0000000   0.0000000
 NMagM=    0.0000000   2.7928460   2.7928460
 AtZNuc=   8.0000000   1.0000000   1.0000000
 Leave Link  101 at Mon May 27 17:29:05 2019, MaxMem=   131072000 cpu:         0.1
 (Enter /applis/g09/l103.exe)

 GradGradGradGradGradGradGradGradGradGradGradGradGradGradGradGradGradGrad
 Berny optimization.
 Initialization pass.
                           ----------------------------
                           !    Initial Parameters    !
                           ! (Angstroms and Degrees)  !
 --------------------------                            --------------------------
 ! Name  Definition              Value          Derivative Info.                !
 --------------------------------------------------------------------------------
 ! R1    R(1,2)                  0.9577         estimate D2E/DX2                !
 ! R2    R(1,3)                  0.9577         estimate D2E/DX2                !
 ! A1    A(2,1,3)              104.9259         estimate D2E/DX2                !
 --------------------------------------------------------------------------------
 Trust Radius=3.00D-01 FncErr=1.00D-07 GrdErr=1.00D-06
 Number of steps in this run=     20 maximum allowed number of steps=    100.
 GradGradGradGradGradGradGradGradGradGradGradGradGradGradGradGradGradGrad

 Leave Link  103 at Mon May 27 17:29:05 2019, MaxMem=   131072000 cpu:         0.0
 (Enter /applis/g09/l202.exe)
                          Input orientation:                          
 ---------------------------------------------------------------------
 Center     Atomic      Atomic             Coordinates (Angstroms)
 Number     Number       Type             X           Y           Z
 ---------------------------------------------------------------------
      1          8           0        0.000000    0.000000   -0.111004
      2          1           0        0.000000    0.759407   -0.694498
      3          1           0        0.000000   -0.759407   -0.694498
 ---------------------------------------------------------------------
                    Distance matrix (angstroms):
                    1          2          3
     1  O    0.000000
     2  H    0.957687   0.000000
     3  H    0.957687   1.518814   0.000000
 Stoichiometry    H2O(3)
 Framework group  C2V[C2(O),SGV(H2)]
 Deg. of freedom     2
 Full point group                 C2V     NOp   4
 Largest Abelian subgroup         C2V     NOp   4
 Largest concise Abelian subgroup C2      NOp   2
                         Standard orientation:                         
 ---------------------------------------------------------------------
 Center     Atomic      Atomic             Coordinates (Angstroms)
 Number     Number       Type             X           Y           Z
 ---------------------------------------------------------------------
      1          8           0        0.000000    0.000000    0.116699
      2          1           0        0.000000    0.759407   -0.466795
      3          1           0        0.000000   -0.759407   -0.466795
 ---------------------------------------------------------------------
 Rotational constants (GHZ):    829.2293618    434.7632886    285.2219783
 Leave Link  202 at Mon May 27 17:29:05 2019, MaxMem=   131072000 cpu:         0.0
 (Enter /applis/g09/l301.exe)
 Standard basis: SVP (5D, 7F)
 Ernie: Thresh=  0.10000D-02 Tol=  0.10000D-05 Strict=F.
 AO basis set (Overlap normalization):
 Atom O1       Shell     1 S   5     bf    1 -     1          0.000000000000          0.000000000000          0.220528772036
      0.2266176779D+04 -0.5389349396D-02
      0.3408701019D+03 -0.4023472220D-01
      0.7736313517D+02 -0.1800818424D+00
      0.2147964494D+02 -0.4682885774D+00
      0.6658943310D+01 -0.4469261703D+00
 Atom O1       Shell     2 S   1     bf    2 -     2          0.000000000000          0.000000000000          0.220528772036
      0.8097597600D+00  0.1000000000D+01
 Atom O1       Shell     3 S   1     bf    3 -     3          0.000000000000          0.000000000000          0.220528772036
      0.2553077200D+00  0.1000000000D+01
 Atom O1       Shell     4 P   3     bf    4 -     6          0.000000000000          0.000000000000          0.220528772036
      0.1772150432D+02  0.6263024412D-01
      0.3863550540D+01  0.3333113880D+00
      0.1048092090D+01  0.7414863817D+00
 Atom O1       Shell     5 P   1     bf    7 -     9          0.000000000000          0.000000000000          0.220528772036
      0.2764154400D+00  0.1000000000D+01
 Atom O1       Shell     6 D   1     bf   10 -    14          0.000000000000          0.000000000000          0.220528772036
      0.1200000000D+01  0.1000000000D+01
 Atom H2       Shell     7 S   3     bf   15 -    15          0.000000000000          1.435071253396         -0.882115088146
      0.1301070100D+02  0.3348548818D-01
      0.1962257200D+01  0.2347218706D+00
      0.4445379600D+00  0.8137702843D+00
 Atom H2       Shell     8 S   1     bf   16 -    16          0.000000000000          1.435071253396         -0.882115088146
      0.1219496200D+00  0.1000000000D+01
 Atom H2       Shell     9 P   1     bf   17 -    19          0.000000000000          1.435071253396         -0.882115088146
      0.8000000000D+00  0.1000000000D+01
 Atom H3       Shell    10 S   3     bf   20 -    20          0.000000000000         -1.435071253396         -0.882115088146
      0.1301070100D+02  0.3348548818D-01
      0.1962257200D+01  0.2347218706D+00
      0.4445379600D+00  0.8137702843D+00
 Atom H3       Shell    11 S   1     bf   21 -    21          0.000000000000         -1.435071253396         -0.882115088146
      0.1219496200D+00  0.1000000000D+01
 Atom H3       Shell    12 P   1     bf   22 -    24          0.000000000000         -1.435071253396         -0.882115088146
      0.8000000000D+00  0.1000000000D+01
 There are    12 symmetry adapted cartesian basis functions of A1  symmetry.
 There are     2 symmetry adapted cartesian basis functions of A2  symmetry.
 There are     4 symmetry adapted cartesian basis functions of B1  symmetry.
 There are     7 symmetry adapted cartesian basis functions of B2  symmetry.
 There are    11 symmetry adapted basis functions of A1  symmetry.
 There are     2 symmetry adapted basis functions of A2  symmetry.
 There are     4 symmetry adapted basis functions of B1  symmetry.
 There are     7 symmetry adapted basis functions of B2  symmetry.
    24 basis functions,    39 primitive gaussians,    25 cartesian basis functions
     6 alpha electrons        4 beta electrons
       nuclear repulsion energy         9.1893367177 Hartrees.
 IExCor=  402 DFT=T Ex+Corr=B3LYP ExCW=0 ScaHFX=  0.200000
 ScaDFX=  0.800000  0.720000  1.000000  0.810000 ScalE2=  1.000000  1.000000
 IRadAn=      0 IRanWt=     -1 IRanGd=            0 ICorTp=0 IEmpDi=  4
 NAtoms=    3 NActive=    3 NUniq=    2 SFac= 2.25D+00 NAtFMM=   60 NAOKFM=F Big=F
 Integral buffers will be    131072 words long.
 Raffenetti 2 integral format.
 Two-electron integral symmetry is turned on.
 Leave Link  301 at Mon May 27 17:29:05 2019, MaxMem=   131072000 cpu:         0.0
 (Enter /applis/g09/l302.exe)
 NPDir=0 NMtPBC=     1 NCelOv=     1 NCel=       1 NClECP=     1 NCelD=      1
         NCelK=      1 NCelE2=     1 NClLst=     1 CellRange=     0.0.
 One-electron integrals computed using PRISM.
 One-electron integral symmetry used in STVInt
 NBasis=    24 RedAO= T EigKep=  5.93D-02  NBF=    11     2     4     7
 NBsUse=    24 1.00D-06 EigRej= -1.00D+00 NBFU=    11     2     4     7
 Precomputing XC quadrature grid using
 IXCGrd= 4 IRadAn=           0 IRanWt=          -1 IRanGd=           0 AccXCQ= 0.00D+00.
 Generated NRdTot=       0 NPtTot=           0 NUsed=           0 NTot=          32
 NSgBfM=    25    25    25    25    25 MxSgAt=     3 MxSgA2=     3.
 Leave Link  302 at Mon May 27 17:29:05 2019, MaxMem=   131072000 cpu:         0.1
 (Enter /applis/g09/l303.exe)
 DipDrv:  MaxL=1.
 Leave Link  303 at Mon May 27 17:29:05 2019, MaxMem=   131072000 cpu:         0.0
 (Enter /applis/g09/l401.exe)
 ExpMin= 1.22D-01 ExpMax= 2.27D+03 ExpMxC= 3.41D+02 IAcc=1 IRadAn=         1 AccDes= 0.00D+00
 Harris functional with IExCor=  402 and IRadAn=       1 diagonalized for initial guess.
 HarFok:  IExCor=  402 AccDes= 0.00D+00 IRadAn=         1 IDoV= 1 UseB2=F ITyADJ=14
 ICtDFT=  3500011 ScaDFX=  1.000000  1.000000  1.000000  1.000000
 FoFCou: FMM=F IPFlag=           0 FMFlag=      100000 FMFlg1=           0
         NFxFlg=           0 DoJE=T BraDBF=F KetDBF=T FulRan=T
         wScrn=  0.000000 ICntrl=     500 IOpCl=  0 I1Cent=   200000004 NGrid=           0
         NMat0=    1 NMatS0=      1 NMatT0=    0 NMatD0=    1 NMtDS0=    0 NMtDT0=    0
 Petite list used in FoFCou.
 Harris En= -76.0166263341558    
 JPrj=0 DoOrth=F DoCkMO=F.
 Initial guess orbital symmetries:
 Alpha Orbitals:
       Occupied  (A1) (A1) (B2) (A1) (B1) (A1)
       Virtual   (B2) (B2) (A1) (A1) (B1) (B2) (A1) (A2) (A1) (B1)
                 (B2) (B2) (A1) (B1) (A2) (A1) (A1) (B2)
 Beta  Orbitals:
       Occupied  (A1) (A1) (B2) (A1)
       Virtual   (B1) (A1) (B2) (B2) (A1) (A1) (B1) (B2) (A1) (A2)
                 (A1) (B1) (B2) (B2) (A1) (B1) (A2) (A1) (A1) (B2)
 The electronic state of the initial guess is 3-B1.
 Initial guess <Sx>= 0.0000 <Sy>= 0.0000 <Sz>= 1.0000 <S**2>= 2.0000 S= 1.0000
 Leave Link  401 at Mon May 27 17:29:05 2019, MaxMem=   131072000 cpu:         0.1
 (Enter /applis/g09/l502.exe)
 UHF open shell SCF:
 Using DIIS extrapolation, IDIIS=  1040.
 Integral symmetry usage will be decided dynamically.
 Keep R1 and R2 ints in memory in symmetry-blocked form, NReq=926891.
 IVT=       20839 IEndB=       20839 NGot=   131072000 MDV=   131025044
 LenX=   131025044 LenY=   131023978
 Requested convergence on RMS density matrix=1.00D-08 within 128 cycles.
 Requested convergence on MAX density matrix=1.00D-06.
 Requested convergence on             energy=1.00D-06.
 No special actions if energy rises.
 FoFCou: FMM=F IPFlag=           0 FMFlag=           0 FMFlg1=           0
         NFxFlg=           0 DoJE=F BraDBF=F KetDBF=F FulRan=T
         wScrn=  0.000000 ICntrl=     600 IOpCl=  0 I1Cent=           0 NGrid=           0
         NMat0=    1 NMatS0=    300 NMatT0=    0 NMatD0=    1 NMtDS0=    0 NMtDT0=    0
 Petite list used in FoFCou.
 Integral accuracy reduced to 1.0D-05 until final iterations.

 Cycle   1  Pass 0  IDiag  1:
 E= -76.0804212197712    
 DIIS: error= 2.05D-02 at cycle   1 NSaved=   1.
 NSaved= 1 IEnMin= 1 EnMin= -76.0804212197712     IErMin= 1 ErrMin= 2.05D-02
 ErrMax= 2.05D-02  0.00D+00 EMaxC= 1.00D-01 BMatC= 1.48D-02 BMatP= 1.48D-02
 IDIUse=3 WtCom= 7.95D-01 WtEn= 2.05D-01
 Coeff-Com:  0.100D+01
 Coeff-En:   0.100D+01
 Coeff:      0.100D+01
 Gap=     0.125 Goal=   None    Shift=    0.000
 Gap=     0.226 Goal=   None    Shift=    0.000
 GapD=    0.125 DampG=1.000 DampE=0.500 DampFc=0.5000 IDamp=-1.
 Damping current iteration by 5.00D-01
 RMSDP=2.08D-03 MaxDP=2.29D-02              OVMax= 1.61D-02

 Cycle   2  Pass 0  IDiag  1:
 E= -76.0818195822710     Delta-E=       -0.001398362500 Rises=F Damp=T
 DIIS: error= 1.08D-02 at cycle   2 NSaved=   2.
 NSaved= 2 IEnMin= 2 EnMin= -76.0818195822710     IErMin= 2 ErrMin= 1.08D-02
 ErrMax= 1.08D-02  0.00D+00 EMaxC= 1.00D-01 BMatC= 4.39D-03 BMatP= 1.48D-02
 IDIUse=3 WtCom= 8.92D-01 WtEn= 1.08D-01
 Coeff-Com: -0.109D+01 0.209D+01
 Coeff-En:   0.000D+00 0.100D+01
 Coeff:     -0.973D+00 0.197D+01
 Gap=     0.124 Goal=   None    Shift=    0.000
 Gap=     0.226 Goal=   None    Shift=    0.000
 RMSDP=1.52D-03 MaxDP=1.91D-02 DE=-1.40D-03 OVMax= 6.98D-03

 Cycle   3  Pass 0  IDiag  1:
 E= -76.0833869689874     Delta-E=       -0.001567386716 Rises=F Damp=F
 DIIS: error= 2.50D-03 at cycle   3 NSaved=   3.
 NSaved= 3 IEnMin= 3 EnMin= -76.0833869689874     IErMin= 3 ErrMin= 2.50D-03
 ErrMax= 2.50D-03  0.00D+00 EMaxC= 1.00D-01 BMatC= 3.52D-04 BMatP= 4.39D-03
 IDIUse=3 WtCom= 9.75D-01 WtEn= 2.50D-02
 Coeff-Com: -0.542D+00 0.970D+00 0.572D+00
 Coeff-En:   0.000D+00 0.000D+00 0.100D+01
 Coeff:     -0.529D+00 0.946D+00 0.583D+00
 Gap=     0.124 Goal=   None    Shift=    0.000
 Gap=     0.226 Goal=   None    Shift=    0.000
 RMSDP=3.82D-04 MaxDP=5.18D-03 DE=-1.57D-03 OVMax= 3.09D-03

 Cycle   4  Pass 0  IDiag  1:
 E= -76.0834536442346     Delta-E=       -0.000066675247 Rises=F Damp=F
 DIIS: error= 3.56D-04 at cycle   4 NSaved=   4.
 NSaved= 4 IEnMin= 4 EnMin= -76.0834536442346     IErMin= 4 ErrMin= 3.56D-04
 ErrMax= 3.56D-04  0.00D+00 EMaxC= 1.00D-01 BMatC= 5.02D-06 BMatP= 3.52D-04
 IDIUse=3 WtCom= 9.96D-01 WtEn= 3.56D-03
 Coeff-Com:  0.102D+00-0.194D+00 0.111D-01 0.108D+01
 Coeff-En:   0.000D+00 0.000D+00 0.000D+00 0.100D+01
 Coeff:      0.102D+00-0.193D+00 0.110D-01 0.108D+01
 Gap=     0.124 Goal=   None    Shift=    0.000
 Gap=     0.226 Goal=   None    Shift=    0.000
 RMSDP=6.10D-05 MaxDP=8.44D-04 DE=-6.67D-05 OVMax= 6.20D-04

 Cycle   5  Pass 0  IDiag  1:
 E= -76.0834550783763     Delta-E=       -0.000001434142 Rises=F Damp=F
 DIIS: error= 4.02D-05 at cycle   5 NSaved=   5.
 NSaved= 5 IEnMin= 5 EnMin= -76.0834550783763     IErMin= 5 ErrMin= 4.02D-05
 ErrMax= 4.02D-05  0.00D+00 EMaxC= 1.00D-01 BMatC= 6.32D-08 BMatP= 5.02D-06
 IDIUse=1 WtCom= 1.00D+00 WtEn= 0.00D+00
 Coeff-Com: -0.619D-02 0.131D-01-0.142D-01-0.211D+00 0.122D+01
 Coeff:     -0.619D-02 0.131D-01-0.142D-01-0.211D+00 0.122D+01
 Gap=     0.124 Goal=   None    Shift=    0.000
 Gap=     0.226 Goal=   None    Shift=    0.000
 RMSDP=1.05D-05 MaxDP=1.03D-04 DE=-1.43D-06 OVMax= 1.23D-04

 Cycle   6  Pass 0  IDiag  1:
 E= -76.0834551160201     Delta-E=       -0.000000037644 Rises=F Damp=F
 DIIS: error= 5.67D-06 at cycle   6 NSaved=   6.
 NSaved= 6 IEnMin= 6 EnMin= -76.0834551160201     IErMin= 6 ErrMin= 5.67D-06
 ErrMax= 5.67D-06  0.00D+00 EMaxC= 1.00D-01 BMatC= 1.79D-09 BMatP= 6.32D-08
 IDIUse=1 WtCom= 1.00D+00 WtEn= 0.00D+00
 Coeff-Com: -0.259D-02 0.512D-02-0.195D-02-0.450D-01 0.949D-01 0.950D+00
 Coeff:     -0.259D-02 0.512D-02-0.195D-02-0.450D-01 0.949D-01 0.950D+00
 Gap=     0.124 Goal=   None    Shift=    0.000
 Gap=     0.226 Goal=   None    Shift=    0.000
 RMSDP=1.65D-06 MaxDP=1.52D-05 DE=-3.76D-08 OVMax= 1.98D-05

 Initial convergence to 1.0D-05 achieved.  Increase integral accuracy.
 Cycle   7  Pass 1  IDiag  1:
 E= -76.0834509703672     Delta-E=        0.000004145653 Rises=F Damp=F
 DIIS: error= 5.92D-06 at cycle   1 NSaved=   1.
 NSaved= 1 IEnMin= 1 EnMin= -76.0834509703672     IErMin= 1 ErrMin= 5.92D-06
 ErrMax= 5.92D-06  0.00D+00 EMaxC= 1.00D-01 BMatC= 1.08D-09 BMatP= 1.08D-09
 IDIUse=1 WtCom= 1.00D+00 WtEn= 0.00D+00
 Coeff-Com:  0.100D+01
 Coeff:      0.100D+01
 Gap=     0.124 Goal=   None    Shift=    0.000
 Gap=     0.226 Goal=   None    Shift=    0.000
 RMSDP=1.65D-06 MaxDP=1.52D-05 DE= 4.15D-06 OVMax= 5.99D-06

 Cycle   8  Pass 1  IDiag  1:
 E= -76.0834509705784     Delta-E=       -0.000000000211 Rises=F Damp=F
 DIIS: error= 6.11D-07 at cycle   2 NSaved=   2.
 NSaved= 2 IEnMin= 2 EnMin= -76.0834509705784     IErMin= 2 ErrMin= 6.11D-07
 ErrMax= 6.11D-07  0.00D+00 EMaxC= 1.00D-01 BMatC= 2.10D-11 BMatP= 1.08D-09
 IDIUse=1 WtCom= 1.00D+00 WtEn= 0.00D+00
 Coeff-Com: -0.480D-01 0.105D+01
 Coeff:     -0.480D-01 0.105D+01
 Gap=     0.124 Goal=   None    Shift=    0.000
 Gap=     0.226 Goal=   None    Shift=    0.000
 RMSDP=1.65D-07 MaxDP=1.57D-06 DE=-2.11D-10 OVMax= 1.38D-06

 Cycle   9  Pass 1  IDiag  1:
 E= -76.0834509705806     Delta-E=       -0.000000000002 Rises=F Damp=F
 DIIS: error= 5.14D-07 at cycle   3 NSaved=   3.
 NSaved= 3 IEnMin= 3 EnMin= -76.0834509705806     IErMin= 3 ErrMin= 5.14D-07
 ErrMax= 5.14D-07  0.00D+00 EMaxC= 1.00D-01 BMatC= 1.59D-11 BMatP= 2.10D-11
 IDIUse=1 WtCom= 1.00D+00 WtEn= 0.00D+00
 Coeff-Com: -0.355D-01 0.507D+00 0.529D+00
 Coeff:     -0.355D-01 0.507D+00 0.529D+00
 Gap=     0.124 Goal=   None    Shift=    0.000
 Gap=     0.226 Goal=   None    Shift=    0.000
 RMSDP=8.39D-08 MaxDP=1.25D-06 DE=-2.16D-12 OVMax= 6.13D-07

 Cycle  10  Pass 1  IDiag  1:
 E= -76.0834509705836     Delta-E=       -0.000000000003 Rises=F Damp=F
 DIIS: error= 5.81D-08 at cycle   4 NSaved=   4.
 NSaved= 4 IEnMin= 4 EnMin= -76.0834509705836     IErMin= 4 ErrMin= 5.81D-08
 ErrMax= 5.81D-08  0.00D+00 EMaxC= 1.00D-01 BMatC= 1.55D-13 BMatP= 1.59D-11
 IDIUse=1 WtCom= 1.00D+00 WtEn= 0.00D+00
 Coeff-Com:  0.717D-03-0.544D-01 0.395D-01 0.101D+01
 Coeff:      0.717D-03-0.544D-01 0.395D-01 0.101D+01
 Gap=     0.124 Goal=   None    Shift=    0.000
 Gap=     0.226 Goal=   None    Shift=    0.000
 RMSDP=9.97D-09 MaxDP=1.04D-07 DE=-3.06D-12 OVMax= 9.19D-08

 SCF Done:  E(UB3LYP) =  -76.0834509706     A.U. after   10 cycles
            NFock= 10  Conv=0.10D-07     -V/T= 1.9989
 <Sx>= 0.0000 <Sy>= 0.0000 <Sz>= 1.0000 <S**2>= 2.0016 S= 1.0005
 <L.S>= 0.000000000000E+00
 KE= 7.616945559887D+01 PE=-1.974225949675D+02 EE= 3.598035168038D+01
 Annihilation of the first spin contaminant:
 S**2 before annihilation     2.0016,   after     2.0000
 Leave Link  502 at Mon May 27 17:29:05 2019, MaxMem=   131072000 cpu:         0.3
 (Enter /applis/g09/l601.exe)
 Copying SCF densities to generalized density rwf, IOpCl= 1 IROHF=0.

 **********************************************************************

            Population analysis using the SCF density.

 **********************************************************************

 Orbital symmetries:
 Alpha Orbitals:
       Occupied  (A1) (A1) (B2) (B1) (A1) (A1)
       Virtual   (B2) (B2) (A1) (B1) (A1) (B2) (A1) (A2) (A1) (B1)
                 (B2) (B2) (A1) (B1) (A2) (A1) (A1) (B2)
 Beta  Orbitals:
       Occupied  (A1) (A1) (B2) (A1)
       Virtual   (B1) (A1) (B2) (B2) (A1) (A1) (B1) (B2) (A1) (A2)
                 (A1) (B1) (B2) (B2) (A1) (B1) (A2) (A1) (A1) (B2)
 The electronic state is 3-B1.
 Alpha  occ. eigenvalues --  -19.34009  -1.18279  -0.67344  -0.55255  -0.55229
 Alpha  occ. eigenvalues --   -0.07824
 Alpha virt. eigenvalues --    0.04597   0.48106   0.52509   0.72991   0.77018
 Alpha virt. eigenvalues --    0.88257   0.97015   1.24176   1.31010   1.44382
 Alpha virt. eigenvalues --    1.71418   2.11065   2.11727   2.74295   2.79636
 Alpha virt. eigenvalues --    3.02233   3.31700   3.66082
  Beta  occ. eigenvalues --  -19.30532  -1.09574  -0.64085  -0.51173
  Beta virt. eigenvalues --   -0.28577   0.02436   0.09492   0.50345   0.57520
  Beta virt. eigenvalues --    0.79753   0.83519   0.90699   1.00704   1.27669
  Beta virt. eigenvalues --    1.33731   1.48049   1.73436   2.14212   2.19206
  Beta virt. eigenvalues --    2.83107   2.87972   3.06333   3.38763   3.68853
     Alpha Molecular Orbital Coefficients:
                           1         2         3         4         5
                        (A1)--O   (A1)--O   (B2)--O   (B1)--O   (A1)--O
     Eigenvalues --   -19.34009  -1.18279  -0.67344  -0.55255  -0.55229
   1 1   O  1S          0.98851   0.29581   0.00000   0.00000   0.09270
   2        2S         -0.04068   0.61775   0.00000   0.00000   0.19181
   3        3S          0.01468   0.25662   0.00000   0.00000   0.29175
   4        4PX         0.00000   0.00000   0.00000   0.70661   0.00000
   5        4PY         0.00000   0.00000   0.56590   0.00000   0.00000
   6        4PZ         0.00275  -0.11541   0.00000   0.00000   0.61531
   7        5PX         0.00000   0.00000   0.00000   0.42078   0.00000
   8        5PY         0.00000   0.00000   0.21891   0.00000   0.00000
   9        5PZ        -0.00004   0.00487   0.00000   0.00000   0.32346
  10        6D 0       -0.00001  -0.00530   0.00000   0.00000  -0.01916
  11        6D+1        0.00000   0.00000   0.00000  -0.01719   0.00000
  12        6D-1        0.00000   0.00000  -0.02150   0.00000   0.00000
  13        6D+2        0.00108   0.00756   0.00000   0.00000   0.00585
  14        6D-2        0.00000   0.00000   0.00000   0.00000   0.00000
  15 2   H  1S          0.00242   0.17223   0.29111   0.00000  -0.18382
  16        2S         -0.00246   0.00047   0.05468   0.00000  -0.03207
  17        3PX         0.00000   0.00000   0.00000   0.02085   0.00000
  18        3PY        -0.00257  -0.02887  -0.01617   0.00000   0.02612
  19        3PZ         0.00203   0.01600   0.02830   0.00000   0.00575
  20 3   H  1S          0.00242   0.17223  -0.29111   0.00000  -0.18382
  21        2S         -0.00246   0.00047  -0.05468   0.00000  -0.03207
  22        3PX         0.00000   0.00000   0.00000   0.02085   0.00000
  23        3PY         0.00257   0.02887  -0.01617   0.00000  -0.02612
  24        3PZ         0.00203   0.01600  -0.02830   0.00000   0.00575
                           6         7         8         9        10
                        (A1)--O   (B2)--V   (B2)--V   (A1)--V   (B1)--V
     Eigenvalues --    -0.07824   0.04597   0.48106   0.52509   0.72991
   1 1   O  1S          0.11324   0.00000   0.00000  -0.08929   0.00000
   2        2S          0.23919   0.00000   0.00000  -0.34698   0.00000
   3        3S          0.86254   0.00000   0.00000   0.45454   0.00000
   4        4PX         0.00000   0.00000   0.00000   0.00000  -0.91521
   5        4PY         0.00000  -0.38525  -0.26863   0.00000   0.00000
   6        4PZ        -0.23908   0.00000   0.00000   0.39419   0.00000
   7        5PX         0.00000   0.00000   0.00000   0.00000   1.06168
   8        5PY         0.00000  -0.54719  -0.35122   0.00000   0.00000
   9        5PZ        -0.28675   0.00000   0.00000  -0.08966   0.00000
  10        6D 0        0.00353   0.00000   0.00000   0.00392   0.00000
  11        6D+1        0.00000   0.00000   0.00000   0.00000   0.00155
  12        6D-1        0.00000  -0.00244  -0.11179   0.00000   0.00000
  13        6D+2        0.00773   0.00000   0.00000  -0.10776   0.00000
  14        6D-2        0.00000   0.00000   0.00000   0.00000   0.00000
  15 2   H  1S         -0.17844   0.18113   0.96986   0.82969   0.00000
  16        2S         -0.77021   1.21983  -0.90469  -0.68135   0.00000
  17        3PX         0.00000   0.00000   0.00000   0.00000   0.01227
  18        3PY        -0.00989   0.00763   0.03741   0.18935   0.00000
  19        3PZ         0.00263  -0.00786  -0.09652  -0.03501   0.00000
  20 3   H  1S         -0.17844  -0.18113  -0.96986   0.82969   0.00000
  21        2S         -0.77021  -1.21983   0.90469  -0.68135   0.00000
  22        3PX         0.00000   0.00000   0.00000   0.00000   0.01227
  23        3PY         0.00989   0.00763   0.03741  -0.18935   0.00000
  24        3PZ         0.00263   0.00786   0.09652  -0.03501   0.00000
                          11        12        13        14        15
                        (A1)--V   (B2)--V   (A1)--V   (A2)--V   (A1)--V
     Eigenvalues --     0.77018   0.88257   0.97015   1.24176   1.31010
   1 1   O  1S         -0.15841   0.00000  -0.23211   0.00000  -0.06920
   2        2S         -0.73600   0.00000  -1.51778   0.00000  -0.59265
   3        3S          0.40369   0.00000   2.88210   0.00000   1.46635
   4        4PX         0.00000   0.00000   0.00000   0.00000   0.00000
   5        4PY         0.00000  -0.75863   0.00000   0.00000   0.00000
   6        4PZ        -0.73102   0.00000   0.16432   0.00000   0.07305
   7        5PX         0.00000   0.00000   0.00000   0.00000   0.00000
   8        5PY         0.00000   1.77591   0.00000   0.00000   0.00000
   9        5PZ         1.10023   0.00000  -0.79854   0.00000  -1.09850
  10        6D 0       -0.00064   0.00000   0.03623   0.00000  -0.22986
  11        6D+1        0.00000   0.00000   0.00000   0.00000   0.00000
  12        6D-1        0.00000  -0.01413   0.00000   0.00000   0.00000
  13        6D+2       -0.02746   0.00000   0.06246   0.00000   0.02984
  14        6D-2        0.00000   0.00000   0.00000   0.20895   0.00000
  15 2   H  1S          0.37222  -0.34420  -0.58630   0.00000  -0.67649
  16        2S         -0.09135  -0.86759  -0.55004   0.00000  -0.15334
  17        3PX         0.00000   0.00000   0.00000   0.65290   0.00000
  18        3PY        -0.01979   0.20535  -0.00240   0.00000   0.42608
  19        3PZ         0.09443  -0.10802  -0.27996   0.00000   0.46054
  20 3   H  1S          0.37222   0.34420  -0.58630   0.00000  -0.67649
  21        2S         -0.09135   0.86759  -0.55004   0.00000  -0.15334
  22        3PX         0.00000   0.00000   0.00000  -0.65290   0.00000
  23        3PY         0.01979   0.20535   0.00240   0.00000  -0.42608
  24        3PZ         0.09443   0.10802  -0.27996   0.00000   0.46054
                          16        17        18        19        20
                        (B1)--V   (B2)--V   (B2)--V   (A1)--V   (B1)--V
     Eigenvalues --     1.44382   1.71418   2.11065   2.11727   2.74295
   1 1   O  1S          0.00000   0.00000   0.00000   0.13812   0.00000
   2        2S          0.00000   0.00000   0.00000   0.73455   0.00000
   3        3S          0.00000   0.00000   0.00000   0.56358   0.00000
   4        4PX        -0.01232   0.00000   0.00000   0.00000   0.00990
   5        4PY         0.00000  -0.02233   0.71121   0.00000   0.00000
   6        4PZ         0.00000   0.00000   0.00000  -0.54884   0.00000
   7        5PX        -0.55272   0.00000   0.00000   0.00000  -0.32548
   8        5PY         0.00000   0.82654   0.14099   0.00000   0.00000
   9        5PZ         0.00000   0.00000   0.00000  -0.13779   0.00000
  10        6D 0        0.00000   0.00000   0.00000  -0.11811   0.00000
  11        6D+1       -0.25185   0.00000   0.00000   0.00000   1.01991
  12        6D-1        0.00000   0.02792   0.19947   0.00000   0.00000
  13        6D+2        0.00000   0.00000   0.00000   0.33793   0.00000
  14        6D-2        0.00000   0.00000   0.00000   0.00000   0.00000
  15 2   H  1S          0.00000  -0.34539  -0.18303  -0.31277   0.00000
  16        2S          0.00000  -0.09465  -0.35187  -0.19944   0.00000
  17        3PX         0.71860   0.00000   0.00000   0.00000   0.44508
  18        3PY         0.00000  -0.45912   0.67721   0.68218   0.00000
  19        3PZ         0.00000  -0.67234  -0.52822  -0.48734   0.00000
  20 3   H  1S          0.00000   0.34539   0.18303  -0.31277   0.00000
  21        2S          0.00000   0.09465   0.35187  -0.19944   0.00000
  22        3PX         0.71860   0.00000   0.00000   0.00000   0.44508
  23        3PY         0.00000  -0.45912   0.67721  -0.68218   0.00000
  24        3PZ         0.00000   0.67234   0.52822  -0.48734   0.00000
                          21        22        23        24
                        (A2)--V   (A1)--V   (A1)--V   (B2)--V
     Eigenvalues --     2.79636   3.02233   3.31700   3.66082
   1 1   O  1S          0.00000   0.01087   0.08728   0.00000
   2        2S          0.00000  -0.05681   0.21227   0.00000
   3        3S          0.00000   0.70584   1.95775   0.00000
   4        4PX         0.00000   0.00000   0.00000   0.00000
   5        4PY         0.00000   0.00000   0.00000  -0.49263
   6        4PZ         0.00000  -0.05935  -0.40644   0.00000
   7        5PX         0.00000   0.00000   0.00000   0.00000
   8        5PY         0.00000   0.00000   0.00000  -1.15256
   9        5PZ         0.00000  -0.63777  -0.89633   0.00000
  10        6D 0        0.00000   1.06861   0.04172   0.00000
  11        6D+1        0.00000   0.00000   0.00000   0.00000
  12        6D-1        0.00000   0.00000   0.00000   1.33301
  13        6D+2        0.00000   0.09775  -1.14177   0.00000
  14        6D-2        1.05020   0.00000   0.00000   0.00000
  15 2   H  1S          0.00000  -0.40869  -1.17533   1.08003
  16        2S          0.00000  -0.08345  -0.24949   0.28768
  17        3PX        -0.41120   0.00000   0.00000   0.00000
  18        3PY         0.00000   0.44688   0.63884  -0.64501
  19        3PZ         0.00000   0.29573  -0.54811   0.51994
  20 3   H  1S          0.00000  -0.40869  -1.17533  -1.08003
  21        2S          0.00000  -0.08345  -0.24949  -0.28768
  22        3PX         0.41120   0.00000   0.00000   0.00000
  23        3PY         0.00000  -0.44688  -0.63884  -0.64501
  24        3PZ         0.00000   0.29573  -0.54811  -0.51994
     Beta Molecular Orbital Coefficients:
                           1         2         3         4         5
                        (A1)--O   (A1)--O   (B2)--O   (A1)--O   (B1)--V
     Eigenvalues --   -19.30532  -1.09574  -0.64085  -0.51173  -0.28577
   1 1   O  1S          0.98902   0.28530   0.00000   0.09460   0.00000
   2        2S         -0.03887   0.57836   0.00000   0.19918   0.00000
   3        3S          0.01360   0.26331   0.00000   0.29172   0.00000
   4        4PX         0.00000   0.00000   0.00000   0.00000   0.62330
   5        4PY         0.00000   0.00000   0.55614   0.00000   0.00000
   6        4PZ         0.00248  -0.10061   0.00000   0.59878   0.00000
   7        5PX         0.00000   0.00000   0.00000   0.00000   0.50834
   8        5PY         0.00000   0.00000   0.22310   0.00000   0.00000
   9        5PZ         0.00023   0.01151   0.00000   0.33667   0.00000
  10        6D 0       -0.00027   0.00344   0.00000  -0.01220   0.00000
  11        6D+1        0.00000   0.00000   0.00000   0.00000  -0.01185
  12        6D-1        0.00000   0.00000  -0.01808   0.00000   0.00000
  13        6D+2        0.00166  -0.01192   0.00000  -0.00163   0.00000
  14        6D-2        0.00000   0.00000   0.00000   0.00000   0.00000
  15 2   H  1S          0.00256   0.19397   0.29841  -0.18786   0.00000
  16        2S         -0.00229   0.00324   0.04481  -0.02867   0.00000
  17        3PX         0.00000   0.00000   0.00000   0.00000   0.02750
  18        3PY        -0.00253  -0.03345  -0.02082   0.02953   0.00000
  19        3PZ         0.00199   0.01783   0.03238   0.00453   0.00000
  20 3   H  1S          0.00256   0.19397  -0.29841  -0.18786   0.00000
  21        2S         -0.00229   0.00324  -0.04481  -0.02867   0.00000
  22        3PX         0.00000   0.00000   0.00000   0.00000   0.02750
  23        3PY         0.00253   0.03345  -0.02082  -0.02953   0.00000
  24        3PZ         0.00199   0.01783  -0.03238   0.00453   0.00000
                           6         7         8         9        10
                        (A1)--V   (B2)--V   (B2)--V   (A1)--V   (A1)--V
     Eigenvalues --     0.02436   0.09492   0.50345   0.57520   0.79753
   1 1   O  1S          0.11476   0.00000   0.00000  -0.09327  -0.15811
   2        2S          0.22956   0.00000   0.00000  -0.32665  -0.71921
   3        3S          0.90954   0.00000   0.00000   0.33629   0.35302
   4        4PX         0.00000   0.00000   0.00000   0.00000   0.00000
   5        4PY         0.00000  -0.37943  -0.26299   0.00000   0.00000
   6        4PZ        -0.21750   0.00000   0.00000   0.41385  -0.73781
   7        5PX         0.00000   0.00000   0.00000   0.00000   0.00000
   8        5PY         0.00000  -0.55261  -0.39881   0.00000   0.00000
   9        5PZ        -0.30412   0.00000   0.00000  -0.06734   1.11172
  10        6D 0        0.00607   0.00000   0.00000  -0.00246  -0.01014
  11        6D+1        0.00000   0.00000   0.00000   0.00000   0.00000
  12        6D-1        0.00000  -0.00368  -0.11206   0.00000   0.00000
  13        6D+2       -0.00364   0.00000   0.00000  -0.09777  -0.01891
  14        6D-2        0.00000   0.00000   0.00000   0.00000   0.00000
  15 2   H  1S         -0.14318   0.17404   0.97947   0.84364   0.39635
  16        2S         -0.80452   1.23623  -0.87058  -0.63123  -0.09326
  17        3PX         0.00000   0.00000   0.00000   0.00000   0.00000
  18        3PY        -0.00233   0.00144   0.02771   0.19354  -0.01896
  19        3PZ        -0.00171  -0.00491  -0.09050  -0.02798   0.09812
  20 3   H  1S         -0.14318  -0.17404  -0.97947   0.84364   0.39635
  21        2S         -0.80452  -1.23623   0.87058  -0.63123  -0.09326
  22        3PX         0.00000   0.00000   0.00000   0.00000   0.00000
  23        3PY         0.00233   0.00144   0.02771  -0.19354   0.01896
  24        3PZ        -0.00171   0.00491   0.09050  -0.02798   0.09812
                          11        12        13        14        15
                        (B1)--V   (B2)--V   (A1)--V   (A2)--V   (A1)--V
     Eigenvalues --     0.83519   0.90699   1.00704   1.27669   1.33731
   1 1   O  1S          0.00000   0.00000  -0.23489   0.00000  -0.07353
   2        2S          0.00000   0.00000  -1.51600   0.00000  -0.63539
   3        3S          0.00000   0.00000   2.85325   0.00000   1.57063
   4        4PX        -0.97380   0.00000   0.00000   0.00000   0.00000
   5        4PY         0.00000  -0.76888   0.00000   0.00000   0.00000
   6        4PZ         0.00000   0.00000   0.16023   0.00000   0.08084
   7        5PX         1.02483   0.00000   0.00000   0.00000   0.00000
   8        5PY         0.00000   1.76872   0.00000   0.00000   0.00000
   9        5PZ         0.00000   0.00000  -0.74942   0.00000  -1.13400
  10        6D 0        0.00000   0.00000   0.04410   0.00000  -0.22245
  11        6D+1       -0.00125   0.00000   0.00000   0.00000   0.00000
  12        6D-1        0.00000  -0.01988   0.00000   0.00000   0.00000
  13        6D+2        0.00000   0.00000   0.06063   0.00000   0.01805
  14        6D-2        0.00000   0.00000   0.00000   0.19452   0.00000
  15 2   H  1S          0.00000  -0.32680  -0.54596   0.00000  -0.70988
  16        2S          0.00000  -0.88074  -0.55848   0.00000  -0.16836
  17        3PX         0.00468   0.00000   0.00000   0.65848   0.00000
  18        3PY         0.00000   0.20625  -0.00348   0.00000   0.42617
  19        3PZ         0.00000  -0.11434  -0.29720   0.00000   0.45254
  20 3   H  1S          0.00000   0.32680  -0.54596   0.00000  -0.70988
  21        2S          0.00000   0.88074  -0.55848   0.00000  -0.16836
  22        3PX         0.00468   0.00000   0.00000  -0.65848   0.00000
  23        3PY         0.00000   0.20625   0.00348   0.00000  -0.42617
  24        3PZ         0.00000   0.11434  -0.29720   0.00000   0.45254
                          16        17        18        19        20
                        (B1)--V   (B2)--V   (B2)--V   (A1)--V   (B1)--V
     Eigenvalues --     1.48049   1.73436   2.14212   2.19206   2.83107
   1 1   O  1S          0.00000   0.00000   0.00000   0.14989   0.00000
   2        2S          0.00000   0.00000   0.00000   0.76721   0.00000
   3        3S          0.00000   0.00000   0.00000   0.63028   0.00000
   4        4PX        -0.01937   0.00000   0.00000   0.00000   0.00124
   5        4PY         0.00000  -0.01650   0.70863   0.00000   0.00000
   6        4PZ         0.00000   0.00000   0.00000  -0.56368   0.00000
   7        5PX        -0.55542   0.00000   0.00000   0.00000  -0.31381
   8        5PY         0.00000   0.82146   0.13013   0.00000   0.00000
   9        5PZ         0.00000   0.00000   0.00000  -0.19142   0.00000
  10        6D 0        0.00000   0.00000   0.00000  -0.09542   0.00000
  11        6D+1       -0.23463   0.00000   0.00000   0.00000   1.02408
  12        6D-1        0.00000   0.02861   0.20287   0.00000   0.00000
  13        6D+2        0.00000   0.00000   0.00000   0.30727   0.00000
  14        6D-2        0.00000   0.00000   0.00000   0.00000   0.00000
  15 2   H  1S          0.00000  -0.34507  -0.16913  -0.36496   0.00000
  16        2S          0.00000  -0.09456  -0.34914  -0.20292   0.00000
  17        3PX         0.72590   0.00000   0.00000   0.00000   0.43285
  18        3PY         0.00000  -0.45826   0.67637   0.71240   0.00000
  19        3PZ         0.00000  -0.67316  -0.52532  -0.48964   0.00000
  20 3   H  1S          0.00000   0.34507   0.16913  -0.36496   0.00000
  21        2S          0.00000   0.09456   0.34914  -0.20292   0.00000
  22        3PX         0.72590   0.00000   0.00000   0.00000   0.43285
  23        3PY         0.00000  -0.45826   0.67637  -0.71240   0.00000
  24        3PZ         0.00000   0.67316   0.52532  -0.48964   0.00000
                          21        22        23        24
                        (A2)--V   (A1)--V   (A1)--V   (B2)--V
     Eigenvalues --     2.87972   3.06333   3.38763   3.68853
   1 1   O  1S          0.00000  -0.00101   0.07873   0.00000
   2        2S          0.00000  -0.09218   0.17513   0.00000
   3        3S          0.00000   0.52261   1.96778   0.00000
   4        4PX         0.00000   0.00000   0.00000   0.00000
   5        4PY         0.00000   0.00000   0.00000  -0.49930
   6        4PZ         0.00000  -0.02199  -0.39888   0.00000
   7        5PX         0.00000   0.00000   0.00000   0.00000
   8        5PY         0.00000   0.00000   0.00000  -1.14964
   9        5PZ         0.00000  -0.54923  -0.92013   0.00000
  10        6D 0        0.00000   1.06464   0.13377   0.00000
  11        6D+1        0.00000   0.00000   0.00000   0.00000
  12        6D-1        0.00000   0.00000   0.00000   1.33243
  13        6D+2        0.00000   0.18292  -1.14137   0.00000
  14        6D-2        1.05297   0.00000   0.00000   0.00000
  15 2   H  1S          0.00000  -0.29762  -1.17637   1.07830
  16        2S          0.00000  -0.05856  -0.24858   0.28799
  17        3PX        -0.40220   0.00000   0.00000   0.00000
  18        3PY         0.00000   0.37847   0.64838  -0.64661
  19        3PZ         0.00000   0.34820  -0.51130   0.52134
  20 3   H  1S          0.00000  -0.29762  -1.17637  -1.07830
  21        2S          0.00000  -0.05856  -0.24858  -0.28799
  22        3PX         0.40220   0.00000   0.00000   0.00000
  23        3PY         0.00000  -0.37847  -0.64838  -0.64661
  24        3PZ         0.00000   0.34820  -0.51130  -0.52134
     Alpha Density Matrix:
                           1         2         3         4         5
   1 1   O  1S          1.08608
   2        2S          0.18739   0.47728
   3        3S          0.21514   0.42021   0.89516
   4        4PX         0.00000   0.00000   0.00000   0.49930
   5        4PY         0.00000   0.00000   0.00000   0.00000   0.32024
   6        4PZ        -0.00146  -0.01057  -0.05627   0.00000   0.00000
   7        5PX         0.00000   0.00000   0.00000   0.29732   0.00000
   8        5PY         0.00000   0.00000   0.00000   0.00000   0.12388
   9        5PZ        -0.00109  -0.00354  -0.15172   0.00000   0.00000
  10        6D 0       -0.00295  -0.00610  -0.00390   0.00000   0.00000
  11        6D+1        0.00000   0.00000   0.00000  -0.01215   0.00000
  12        6D-1        0.00000   0.00000   0.00000   0.00000  -0.01216
  13        6D+2        0.00472   0.00760   0.01033   0.00000   0.00000
  14        6D-2        0.00000   0.00000   0.00000   0.00000   0.00000
  15 2   H  1S          0.01610   0.02836  -0.16331   0.00000   0.16474
  16        2S         -0.09249  -0.18999  -0.67361   0.00000   0.03094
  17        3PX         0.00000   0.00000   0.00000   0.01474   0.00000
  18        3PY        -0.00977  -0.01508  -0.00836   0.00000  -0.00915
  19        3PZ         0.00757   0.01154   0.00808   0.00000   0.01601
  20 3   H  1S          0.01610   0.02836  -0.16331   0.00000  -0.16474
  21        2S         -0.09249  -0.18999  -0.67361   0.00000  -0.03094
  22        3PX         0.00000   0.00000   0.00000   0.01474   0.00000
  23        3PY         0.00977   0.01508   0.00836   0.00000  -0.00915
  24        3PZ         0.00757   0.01154   0.00808   0.00000  -0.01601
                           6         7         8         9        10
   6        4PZ         0.44909
   7        5PX         0.00000   0.17705
   8        5PY         0.00000   0.00000   0.04792
   9        5PZ         0.26702   0.00000   0.00000   0.18688
  10        6D 0       -0.01202   0.00000   0.00000  -0.00724   0.00041
  11        6D+1        0.00000  -0.00723   0.00000   0.00000   0.00000
  12        6D-1        0.00000   0.00000  -0.00471   0.00000   0.00000
  13        6D+2        0.00089   0.00000   0.00000  -0.00029  -0.00012
  14        6D-2        0.00000   0.00000   0.00000   0.00000   0.00000
  15 2   H  1S         -0.09031   0.00000   0.06373  -0.00745   0.00198
  16        2S          0.16434   0.00000   0.01197   0.21049  -0.00211
  17        3PX         0.00000   0.00877   0.00000   0.00000   0.00000
  18        3PY         0.02176   0.00000  -0.00354   0.01114  -0.00038
  19        3PZ         0.00107   0.00000   0.00619   0.00118  -0.00019
  20 3   H  1S         -0.09031   0.00000  -0.06373  -0.00745   0.00198
  21        2S          0.16434   0.00000  -0.01197   0.21049  -0.00211
  22        3PX         0.00000   0.00877   0.00000   0.00000   0.00000
  23        3PY        -0.02176   0.00000  -0.00354  -0.01114   0.00038
  24        3PZ         0.00107   0.00000  -0.00619   0.00118  -0.00019
                          11        12        13        14        15
  11        6D+1        0.00030
  12        6D-1        0.00000   0.00046
  13        6D+2        0.00000   0.00000   0.00015
  14        6D-2        0.00000   0.00000   0.00000   0.00000
  15 2   H  1S          0.00000  -0.00626  -0.00115   0.00000   0.18005
  16        2S          0.00000  -0.00118  -0.00614   0.00000   0.15932
  17        3PX        -0.00036   0.00000   0.00000   0.00000   0.00000
  18        3PY         0.00000   0.00035  -0.00014   0.00000  -0.01272
  19        3PZ         0.00000  -0.00061   0.00018   0.00000   0.00947
  20 3   H  1S          0.00000   0.00626  -0.00115   0.00000   0.01055
  21        2S          0.00000   0.00118  -0.00614   0.00000   0.12749
  22        3PX        -0.00036   0.00000   0.00000   0.00000   0.00000
  23        3PY         0.00000   0.00035   0.00014   0.00000   0.00331
  24        3PZ         0.00000   0.00061   0.00018   0.00000  -0.00700
                          16        17        18        19        20
  16        2S          0.59724
  17        3PX         0.00000   0.00043
  18        3PY         0.00589   0.00000   0.00188
  19        3PZ        -0.00066   0.00000  -0.00080   0.00110
  20 3   H  1S          0.12749   0.00000  -0.00331  -0.00700   0.18005
  21        2S          0.59126   0.00000   0.00766  -0.00375   0.15932
  22        3PX         0.00000   0.00043   0.00000   0.00000   0.00000
  23        3PY        -0.00766   0.00000  -0.00136  -0.00011   0.01272
  24        3PZ        -0.00375   0.00000   0.00011  -0.00050   0.00947
                          21        22        23        24
  21        2S          0.59724
  22        3PX         0.00000   0.00043
  23        3PY        -0.00589   0.00000   0.00188
  24        3PZ        -0.00066   0.00000   0.00080   0.00110
     Beta Density Matrix:
                           1         2         3         4         5
   1 1   O  1S          1.06851
   2        2S          0.14541   0.37568
   3        3S          0.11617   0.20986   0.15462
   4        4PX         0.00000   0.00000   0.00000   0.00000
   5        4PY         0.00000   0.00000   0.00000   0.00000   0.30929
   6        4PZ         0.03039   0.06098   0.14822   0.00000   0.00000
   7        5PX         0.00000   0.00000   0.00000   0.00000   0.00000
   8        5PY         0.00000   0.00000   0.00000   0.00000   0.12407
   9        5PZ         0.03536   0.07370   0.10125   0.00000   0.00000
  10        6D 0       -0.00044  -0.00043  -0.00266   0.00000   0.00000
  11        6D+1        0.00000   0.00000   0.00000   0.00000   0.00000
  12        6D-1        0.00000   0.00000   0.00000   0.00000  -0.01006
  13        6D+2       -0.00191  -0.00728  -0.00359   0.00000   0.00000
  14        6D-2        0.00000   0.00000   0.00000   0.00000   0.00000
  15 2   H  1S          0.04010   0.07467  -0.00369   0.00000   0.16596
  16        2S         -0.00406  -0.00375  -0.00754   0.00000   0.02492
  17        3PX         0.00000   0.00000   0.00000   0.00000   0.00000
  18        3PY        -0.00925  -0.01336  -0.00023   0.00000  -0.01158
  19        3PZ         0.00748   0.01114   0.00604   0.00000   0.01801
  20 3   H  1S          0.04010   0.07467  -0.00369   0.00000  -0.16596
  21        2S         -0.00406  -0.00375  -0.00754   0.00000  -0.02492
  22        3PX         0.00000   0.00000   0.00000   0.00000   0.00000
  23        3PY         0.00925   0.01336   0.00023   0.00000  -0.01158
  24        3PZ         0.00748   0.01114   0.00604   0.00000  -0.01801
                           6         7         8         9        10
   6        4PZ         0.36866
   7        5PX         0.00000   0.00000
   8        5PY         0.00000   0.00000   0.04977
   9        5PZ         0.20043   0.00000   0.00000   0.11348
  10        6D 0       -0.00765   0.00000   0.00000  -0.00407   0.00016
  11        6D+1        0.00000   0.00000   0.00000   0.00000   0.00000
  12        6D-1        0.00000   0.00000  -0.00403   0.00000   0.00000
  13        6D+2        0.00023   0.00000   0.00000  -0.00069  -0.00002
  14        6D-2        0.00000   0.00000   0.00000   0.00000   0.00000
  15 2   H  1S         -0.13200   0.00000   0.06657  -0.06101   0.00296
  16        2S         -0.01750   0.00000   0.01000  -0.00962   0.00036
  17        3PX         0.00000   0.00000   0.00000   0.00000   0.00000
  18        3PY         0.02104   0.00000  -0.00465   0.00956  -0.00047
  19        3PZ         0.00092   0.00000   0.00722   0.00173   0.00001
  20 3   H  1S         -0.13200   0.00000  -0.06657  -0.06101   0.00296
  21        2S         -0.01750   0.00000  -0.01000  -0.00962   0.00036
  22        3PX         0.00000   0.00000   0.00000   0.00000   0.00000
  23        3PY        -0.02104   0.00000  -0.00465  -0.00956   0.00047
  24        3PZ         0.00092   0.00000  -0.00722   0.00173   0.00001
                          11        12        13        14        15
  11        6D+1        0.00000
  12        6D-1        0.00000   0.00033
  13        6D+2        0.00000   0.00000   0.00015
  14        6D-2        0.00000   0.00000   0.00000   0.00000
  15 2   H  1S          0.00000  -0.00540  -0.00200   0.00000   0.16197
  16        2S          0.00000  -0.00081   0.00000   0.00000   0.01938
  17        3PX         0.00000   0.00000   0.00000   0.00000   0.00000
  18        3PY         0.00000   0.00038   0.00035   0.00000  -0.01826
  19        3PZ         0.00000  -0.00059  -0.00022   0.00000   0.01227
  20 3   H  1S          0.00000   0.00540  -0.00200   0.00000  -0.01612
  21        2S          0.00000   0.00081   0.00000   0.00000  -0.00736
  22        3PX         0.00000   0.00000   0.00000   0.00000   0.00000
  23        3PY         0.00000   0.00038  -0.00035   0.00000   0.00583
  24        3PZ         0.00000   0.00059  -0.00022   0.00000  -0.00705
                          16        17        18        19        20
  16        2S          0.00285
  17        3PX         0.00000   0.00000
  18        3PY        -0.00188   0.00000   0.00243
  19        3PZ         0.00137   0.00000  -0.00114   0.00139
  20 3   H  1S         -0.00736   0.00000  -0.00583  -0.00705   0.16197
  21        2S         -0.00117   0.00000  -0.00002  -0.00153   0.01938
  22        3PX         0.00000   0.00000   0.00000   0.00000   0.00000
  23        3PY         0.00002   0.00000  -0.00156  -0.00021   0.01826
  24        3PZ        -0.00153   0.00000   0.00021  -0.00071   0.01227
                          21        22        23        24
  21        2S          0.00285
  22        3PX         0.00000   0.00000
  23        3PY         0.00188   0.00000   0.00243
  24        3PZ         0.00137   0.00000   0.00114   0.00139
    Full Mulliken population analysis:
                           1         2         3         4         5
   1 1   O  1S          2.15458
   2        2S         -0.11449   0.85296
   3        3S         -0.05230   0.49708   1.04978
   4        4PX         0.00000   0.00000   0.00000   0.49930
   5        4PY         0.00000   0.00000   0.00000   0.00000   0.62953
   6        4PZ         0.00000   0.00000   0.00000   0.00000   0.00000
   7        5PX         0.00000   0.00000   0.00000   0.14930   0.00000
   8        5PY         0.00000   0.00000   0.00000   0.00000   0.12451
   9        5PZ         0.00000   0.00000   0.00000   0.00000   0.00000
  10        6D 0        0.00000   0.00000   0.00000   0.00000   0.00000
  11        6D+1        0.00000   0.00000   0.00000   0.00000   0.00000
  12        6D-1        0.00000   0.00000   0.00000   0.00000   0.00000
  13        6D+2        0.00000   0.00000   0.00000   0.00000   0.00000
  14        6D-2        0.00000   0.00000   0.00000   0.00000   0.00000
  15 2   H  1S         -0.00269   0.03395  -0.08537   0.00000   0.07381
  16        2S          0.00604  -0.07586  -0.47030   0.00000   0.00469
  17        3PX         0.00000   0.00000   0.00000   0.00270   0.00000
  18        3PY        -0.00138   0.00983   0.00224   0.00000   0.00365
  19        3PZ        -0.00084   0.00602   0.00283   0.00000   0.00940
  20 3   H  1S         -0.00269   0.03395  -0.08537   0.00000   0.07381
  21        2S          0.00604  -0.07586  -0.47030   0.00000   0.00469
  22        3PX         0.00000   0.00000   0.00000   0.00270   0.00000
  23        3PY        -0.00138   0.00983   0.00224   0.00000   0.00365
  24        3PZ        -0.00084   0.00602   0.00283   0.00000   0.00940
                           6         7         8         9        10
   6        4PZ         0.81776
   7        5PX         0.00000   0.17705
   8        5PY         0.00000   0.00000   0.09769
   9        5PZ         0.23473   0.00000   0.00000   0.30035
  10        6D 0        0.00000   0.00000   0.00000   0.00000   0.00057
  11        6D+1        0.00000   0.00000   0.00000   0.00000   0.00000
  12        6D-1        0.00000   0.00000   0.00000   0.00000   0.00000
  13        6D+2        0.00000   0.00000   0.00000   0.00000   0.00000
  14        6D-2        0.00000   0.00000   0.00000   0.00000   0.00000
  15 2   H  1S          0.03812   0.00000   0.06430   0.02596   0.00006
  16        2S         -0.00948   0.00000   0.00681  -0.04782   0.00000
  17        3PX         0.00000   0.00319   0.00000   0.00000   0.00000
  18        3PY         0.01182   0.00000  -0.00046   0.00490   0.00014
  19        3PZ        -0.00006   0.00000   0.00318   0.00053   0.00004
  20 3   H  1S          0.03812   0.00000   0.06430   0.02596   0.00006
  21        2S         -0.00948   0.00000   0.00681  -0.04782   0.00000
  22        3PX         0.00000   0.00319   0.00000   0.00000   0.00000
  23        3PY         0.01182   0.00000  -0.00046   0.00490   0.00014
  24        3PZ        -0.00006   0.00000   0.00318   0.00053   0.00004
                          11        12        13        14        15
  11        6D+1        0.00030
  12        6D-1        0.00000   0.00079
  13        6D+2        0.00000   0.00000   0.00030
  14        6D-2        0.00000   0.00000   0.00000   0.00000
  15 2   H  1S          0.00000   0.00222   0.00039   0.00000   0.34201
  16        2S          0.00000   0.00004   0.00008   0.00000   0.12238
  17        3PX         0.00007   0.00000   0.00000   0.00000   0.00000
  18        3PY         0.00000   0.00013   0.00000   0.00000   0.00000
  19        3PZ         0.00000   0.00005   0.00001   0.00000   0.00000
  20 3   H  1S          0.00000   0.00222   0.00039   0.00000  -0.00067
  21        2S          0.00000   0.00004   0.00008   0.00000   0.03677
  22        3PX         0.00007   0.00000   0.00000   0.00000   0.00000
  23        3PY         0.00000   0.00013   0.00000   0.00000   0.00128
  24        3PZ         0.00000   0.00005   0.00001   0.00000   0.00000
                          16        17        18        19        20
  16        2S          0.60009
  17        3PX         0.00000   0.00043
  18        3PY         0.00000   0.00000   0.00431
  19        3PZ         0.00000   0.00000   0.00000   0.00249
  20 3   H  1S          0.03677   0.00000   0.00128   0.00000   0.34201
  21        2S          0.35709   0.00000  -0.00121   0.00000   0.12238
  22        3PX         0.00000   0.00002   0.00000   0.00000   0.00000
  23        3PY        -0.00121   0.00000   0.00061   0.00000   0.00000
  24        3PZ         0.00000   0.00000   0.00000  -0.00004   0.00000
                          21        22        23        24
  21        2S          0.60009
  22        3PX         0.00000   0.00043
  23        3PY         0.00000   0.00000   0.00431
  24        3PZ         0.00000   0.00000   0.00000   0.00249
     Gross orbital populations:
                         Total     Alpha     Beta      Spin
   1 1   O  1S          1.99005   0.99542   0.99464   0.00078
   2        2S          1.18344   0.63080   0.55265   0.07815
   3        3S          0.39337   0.10318   0.29020  -0.18702
   4        4PX         0.65400   0.65400   0.00000   0.65400
   5        4PY         0.93713   0.47324   0.46388   0.00936
   6        4PZ         1.13331   0.60490   0.52841   0.07649
   7        5PX         0.33274   0.33274   0.00000   0.33274
   8        5PY         0.36986   0.18298   0.18688  -0.00390
   9        5PZ         0.50222   0.23210   0.27013  -0.03803
  10        6D 0        0.00105   0.00066   0.00040   0.00026
  11        6D+1        0.00043   0.00043   0.00000   0.00043
  12        6D-1        0.00567   0.00307   0.00260   0.00047
  13        6D+2        0.00125   0.00053   0.00072  -0.00019
  14        6D-2        0.00000   0.00000   0.00000   0.00000
  15 2   H  1S          0.65253   0.34288   0.30965   0.03323
  16        2S          0.52931   0.51395   0.01536   0.49858
  17        3PX         0.00642   0.00642   0.00000   0.00642
  18        3PY         0.03587   0.01829   0.01758   0.00071
  19        3PZ         0.02360   0.01145   0.01215  -0.00070
  20 3   H  1S          0.65253   0.34288   0.30965   0.03323
  21        2S          0.52931   0.51395   0.01536   0.49858
  22        3PX         0.00642   0.00642   0.00000   0.00642
  23        3PY         0.03587   0.01829   0.01758   0.00071
  24        3PZ         0.02360   0.01145   0.01215  -0.00070
          Condensed to atoms (all electrons):
               1          2          3
     1  O    8.258602  -0.377034  -0.377034
     2  H   -0.377034   1.194097   0.430671
     3  H   -0.377034   0.430671   1.194097
          Atomic-Atomic Spin Densities.
               1          2          3
     1  O    2.336720  -0.706593  -0.706593
     2  H   -0.706593   0.803733   0.441093
     3  H   -0.706593   0.441093   0.803733
 Mulliken charges and spin densities:
               1          2
     1  O    0.495467   0.923535
     2  H   -0.247733   0.538233
     3  H   -0.247733   0.538233
 Sum of Mulliken charges =   0.00000   2.00000
 Mulliken charges and spin densities with hydrogens summed into heavy atoms:
               1          2
     1  O    0.000000   2.000000
 Electronic spatial extent (au):  <R**2>=             25.7879
 Charge=              0.0000 electrons
 Dipole moment (field-independent basis, Debye):
    X=              0.0000    Y=              0.0000    Z=              0.7034  Tot=              0.7034
 Quadrupole moment (field-independent basis, Debye-Ang):
   XX=             -7.8409   YY=             -9.0798   ZZ=             -9.6085
   XY=              0.0000   XZ=              0.0000   YZ=              0.0000
 Traceless Quadrupole moment (field-independent basis, Debye-Ang):
   XX=              1.0022   YY=             -0.2368   ZZ=             -0.7654
   XY=              0.0000   XZ=              0.0000   YZ=              0.0000
 Octapole moment (field-independent basis, Debye-Ang**2):
  XXX=              0.0000  YYY=              0.0000  ZZZ=              5.1694  XYY=              0.0000
  XXY=              0.0000  XXZ=              1.6071  XZZ=              0.0000  YZZ=              0.0000
  YYZ=              2.0486  XYZ=              0.0000
 Hexadecapole moment (field-independent basis, Debye-Ang**3):
 XXXX=             -8.8828 YYYY=            -23.4608 ZZZZ=            -17.9936 XXXY=              0.0000
 XXXZ=              0.0000 YYYX=              0.0000 YYYZ=              0.0000 ZZZX=              0.0000
 ZZZY=              0.0000 XXYY=             -5.3024 XXZZ=             -4.4309 YYZZ=             -6.9281
 XXYZ=              0.0000 YYXZ=              0.0000 ZZXY=              0.0000
 N-N= 9.189336717684D+00 E-N=-1.974225940816D+02  KE= 7.616945559887D+01
 Symmetry A1   KE= 6.950271907769D+01
 Symmetry A2   KE= 3.965245194739D-35
 Symmetry B1   KE= 2.641603324423D+00
 Symmetry B2   KE= 4.025133196753D+00
 Orbital energies and kinetic energies (alpha):
                                 1                 2
   1         (A1)--O         -19.340086         28.746027
   2         (A1)--O          -1.182785          3.143446
   3         (B2)--O          -0.673442          2.025505
   4         (B1)--O          -0.552553          2.641603
   5         (A1)--O          -0.552289          2.463186
   6         (A1)--O          -0.078242          1.025754
   7         (B2)--V           0.045972          1.070720
   8         (B2)--V           0.481062          1.841909
   9         (A1)--V           0.525087          2.315305
  10         (B1)--V           0.729906          3.324853
  11         (A1)--V           0.770180          3.344795
  12         (B2)--V           0.882567          2.785776
  13         (A1)--V           0.970147          3.181340
  14         (A2)--V           1.241761          2.159144
  15         (A1)--V           1.310105          2.357494
  16         (B1)--V           1.443819          2.342484
  17         (B2)--V           1.714180          2.479747
  18         (B2)--V           2.110654          4.046638
  19         (A1)--V           2.117270          4.296899
  20         (B1)--V           2.742951          4.425759
  21         (A2)--V           2.796357          4.523443
  22         (A1)--V           3.022331          4.730799
  23         (A1)--V           3.317001          5.560546
  24         (B2)--V           3.660815          5.867073
 Orbital energies and kinetic energies (beta):
                                 1                 2
   1         (A1)--O         -19.305325         28.772680
   2         (A1)--O          -1.095742          2.946432
   3         (B2)--O          -0.640854          1.999628
   4         (A1)--O          -0.511730          2.405194
   5         (B1)--V          -0.285772          2.247534
   6         (A1)--V           0.024357          0.980343
   7         (B2)--V           0.094922          1.042252
   8         (B2)--V           0.503449          1.844418
   9         (A1)--V           0.575195          2.426166
  10         (A1)--V           0.797525          3.385618
  11         (B1)--V           0.835186          3.716399
  12         (B2)--V           0.906986          2.836384
  13         (A1)--V           1.007043          3.221592
  14         (A2)--V           1.276690          2.149005
  15         (A1)--V           1.337308          2.368467
  16         (B1)--V           1.480492          2.331546
  17         (B2)--V           1.734362          2.480668
  18         (B2)--V           2.142119          4.035921
  19         (A1)--V           2.192059          4.404391
  20         (B1)--V           2.831075          4.439221
  21         (A2)--V           2.879716          4.533582
  22         (A1)--V           3.063331          4.723968
  23         (A1)--V           3.387630          5.530739
  24         (B2)--V           3.688535          5.878096
 Total kinetic energy from orbitals= 7.616945559887D+01
                          Isotropic Fermi Contact Couplings
        Atom                 a.u.       MegaHertz       Gauss      10(-4) cm-1
     1  O(17)              1.69718    -514.41287    -183.55530    -171.58966
     2  H(1)               0.00962      21.50423       7.67324       7.17304
     3  H(1)               0.00962      21.50423       7.67324       7.17304
 --------------------------------------------------------
       Center         ----  Spin Dipole Couplings  ----
                      3XX-RR        3YY-RR        3ZZ-RR
 --------------------------------------------------------
     1   Atom        3.685071     -2.220904     -1.464167
     2   Atom       -0.079659      0.116743     -0.037084
     3   Atom       -0.079659      0.116743     -0.037084
 --------------------------------------------------------
                        XY            XZ            YZ
 --------------------------------------------------------
     1   Atom        0.000000      0.000000      0.000000
     2   Atom        0.000000      0.000000     -0.179763
     3   Atom        0.000000      0.000000      0.179763
 --------------------------------------------------------


 ---------------------------------------------------------------------------------
              Anisotropic Spin Dipole Couplings in Principal Axis System
 ---------------------------------------------------------------------------------

       Atom             a.u.   MegaHertz   Gauss  10(-4) cm-1        Axes

              Baa    -2.2209   160.703    57.343    53.605  0.0000  1.0000  0.0000
     1 O(17)  Bbb    -1.4642   105.946    37.804    35.340  0.0000  0.0000  1.0000
              Bcc     3.6851  -266.649   -95.147   -88.945  1.0000  0.0000  0.0000
 
              Baa    -0.1557   -83.072   -29.642   -27.710  0.0000  0.5507  0.8347
     2 H(1)   Bbb    -0.0797   -42.502   -15.166   -14.177  1.0000  0.0000  0.0000
              Bcc     0.2354   125.575    44.808    41.887  0.0000  0.8347 -0.5507
 
              Baa    -0.1557   -83.072   -29.642   -27.710  0.0000 -0.5507  0.8347
     3 H(1)   Bbb    -0.0797   -42.502   -15.166   -14.177  1.0000  0.0000  0.0000
              Bcc     0.2354   125.575    44.808    41.887  0.0000  0.8347  0.5507
 

 ---------------------------------------------------------------------------------

 No NMR shielding tensors so no spin-rotation constants.
 Leave Link  601 at Mon May 27 17:29:06 2019, MaxMem=   131072000 cpu:         0.2
 (Enter /applis/g09/l701.exe)
 Compute integral first derivatives.
 ... and contract with generalized density number  0.
 Leave Link  701 at Mon May 27 17:29:06 2019, MaxMem=   131072000 cpu:         0.1
 (Enter /applis/g09/l702.exe)
 L702 exits ... SP integral derivatives will be done elsewhere.
 Leave Link  702 at Mon May 27 17:29:06 2019, MaxMem=   131072000 cpu:         0.0
 (Enter /applis/g09/l703.exe)
 Compute integral first derivatives, UseDBF=F ICtDFT=           0.
 Integral derivatives from FoFJK, PRISM(SPDF).
 Calling FoFJK, ICntrl=      2127 FMM=F ISym2X=1 I1Cent= 0 IOpClX= 1 NMat=1 NMatS=1 NMatT=0.
 FoFJK:  IHMeth= 1 ICntrl=    2127 DoSepK=F KAlg= 0 I1Cent=   0 FoldK=F
 IRaf=         0 NMat=   1 IRICut=       1 DoRegI=T DoRafI=F ISym2E= 1.
 FoFCou: FMM=F IPFlag=           0 FMFlag=      100000 FMFlg1=         800
         NFxFlg=           0 DoJE=F BraDBF=F KetDBF=F FulRan=T
         wScrn=  0.000000 ICntrl=    2127 IOpCl=  1 I1Cent=           0 NGrid=           0
         NMat0=    1 NMatS0=      1 NMatT0=    0 NMatD0=    1 NMtDS0=    0 NMtDT0=    0
 Petite list used in FoFCou.
 Leave Link  703 at Mon May 27 17:29:06 2019, MaxMem=   131072000 cpu:         0.2
 (Enter /applis/g09/l716.exe)
 Dipole        = 7.83318638D-17 0.00000000D+00 2.76745263D-01
 ***** Axes restored to original set *****
 -------------------------------------------------------------------
 Center     Atomic                   Forces (Hartrees/Bohr)
 Number     Number              X              Y              Z
 -------------------------------------------------------------------
      1        8           0.000000000    0.000000000    0.137772247
      2        1           0.000000000    0.092792610   -0.068886124
      3        1           0.000000000   -0.092792610   -0.068886124
 -------------------------------------------------------------------
 Cartesian Forces:  Max     0.137772247 RMS     0.071252856
 Leave Link  716 at Mon May 27 17:29:06 2019, MaxMem=   131072000 cpu:         0.0
 (Enter /applis/g09/l103.exe)

 GradGradGradGradGradGradGradGradGradGradGradGradGradGradGradGradGradGrad
 Berny optimization.
 FormGI is forming the generalized inverse of G from B-inverse, IUseBI=4.
 Internal  Forces:  Max     0.115551330 RMS     0.094368420
 Search for a local minimum.
 Step number   1 out of a maximum of   20
 All quantities printed in internal units (Hartrees-Bohrs-Radians)
 RMS Force = .94368D-01 SwitMx=.10000D-02 MixMth= 1
 Mixed Optimization -- RFO/linear search
 Second derivative matrix not updated -- first step.
 The second derivative matrix:
                          R1        R2        A1
           R1           0.55974
           R2           0.00000   0.55974
           A1           0.00000   0.00000   0.16000
 ITU=  0
     Eigenvalues ---    0.16000   0.55974   0.55974
 RFO step:  Lambda=-4.42702249D-02 EMin= 1.60000000D-01
 Linear search not attempted -- first point.
 Iteration  1 RMS(Cart)=  0.14039686 RMS(Int)=  0.00093652
 Iteration  2 RMS(Cart)=  0.00098474 RMS(Int)=  0.00000054
 Iteration  3 RMS(Cart)=  0.00000048 RMS(Int)=  0.00000000
 ITry= 1 IFail=0 DXMaxC= 1.62D-01 DCOld= 1.00D+10 DXMaxT= 3.00D-01 DXLimC= 3.00D+00 Rises=F
 ClnCor:  largest displacement from symmetrization is 1.42D-15 for atom     3.
 Variable       Old X    -DE/DX   Delta X   Delta X   Delta X     New X
                                 (Linear)    (Quad)   (Total)
    R1        1.80977   0.11555   0.00000   0.19131   0.19131   2.00107
    R2        1.80977   0.11555   0.00000   0.19131   0.19131   2.00107
    A1        1.83130   0.00346   0.00000   0.01694   0.01694   1.84824
         Item               Value     Threshold  Converged?
 Maximum Force            0.115551     0.000450     NO 
 RMS     Force            0.094368     0.000300     NO 
 Maximum Displacement     0.161970     0.001800     NO 
 RMS     Displacement     0.140891     0.001200     NO 
 Predicted change in Energy=-2.376169D-02
 Lowest energy point so far.  Saving SCF results.
 GradGradGradGradGradGradGradGradGradGradGradGradGradGradGradGradGradGrad

 Leave Link  103 at Mon May 27 17:29:06 2019, MaxMem=   131072000 cpu:         0.0
 (Enter /applis/g09/l202.exe)
                          Input orientation:                          
 ---------------------------------------------------------------------
 Center     Atomic      Atomic             Coordinates (Angstroms)
 Number     Number       Type             X           Y           Z
 ---------------------------------------------------------------------
      1          8           0        0.000000    0.000000   -0.074641
      2          1           0        0.000000    0.845118   -0.712679
      3          1           0        0.000000   -0.845118   -0.712679
 ---------------------------------------------------------------------
                    Distance matrix (angstroms):
                    1          2          3
     1  O    0.000000
     2  H    1.058922   0.000000
     3  H    1.058922   1.690235   0.000000
 Stoichiometry    H2O(3)
 Framework group  C2V[C2(O),SGV(H2)]
 Deg. of freedom     2
 Full point group                 C2V     NOp   4
 RotChk:  IX=0 Diff= 6.96D-16
 Largest Abelian subgroup         C2V     NOp   4
 Largest concise Abelian subgroup C2      NOp   2
                         Standard orientation:                         
 ---------------------------------------------------------------------
 Center     Atomic      Atomic             Coordinates (Angstroms)
 Number     Number       Type             X           Y           Z
 ---------------------------------------------------------------------
      1          8           0        0.000000    0.000000    0.127608
      2          1           0        0.000000    0.845118   -0.510431
      3          1           0        0.000000   -0.845118   -0.510431
 ---------------------------------------------------------------------
 Rotational constants (GHZ):    693.5121913    351.0490194    233.0708552
 Leave Link  202 at Mon May 27 17:29:06 2019, MaxMem=   131072000 cpu:         0.0
 (Enter /applis/g09/l301.exe)
 Standard basis: SVP (5D, 7F)
 Ernie: Thresh=  0.10000D-02 Tol=  0.10000D-05 Strict=F.
 There are    12 symmetry adapted cartesian basis functions of A1  symmetry.
 There are     2 symmetry adapted cartesian basis functions of A2  symmetry.
 There are     4 symmetry adapted cartesian basis functions of B1  symmetry.
 There are     7 symmetry adapted cartesian basis functions of B2  symmetry.
 There are    11 symmetry adapted basis functions of A1  symmetry.
 There are     2 symmetry adapted basis functions of A2  symmetry.
 There are     4 symmetry adapted basis functions of B1  symmetry.
 There are     7 symmetry adapted basis functions of B2  symmetry.
    24 basis functions,    39 primitive gaussians,    25 cartesian basis functions
     6 alpha electrons        4 beta electrons
       nuclear repulsion energy         8.3087885373 Hartrees.
 IExCor=  402 DFT=T Ex+Corr=B3LYP ExCW=0 ScaHFX=  0.200000
 ScaDFX=  0.800000  0.720000  1.000000  0.810000 ScalE2=  1.000000  1.000000
 IRadAn=      0 IRanWt=     -1 IRanGd=            0 ICorTp=0 IEmpDi=  4
 NAtoms=    3 NActive=    3 NUniq=    2 SFac= 2.25D+00 NAtFMM=   60 NAOKFM=F Big=F
 Integral buffers will be    131072 words long.
 Raffenetti 2 integral format.
 Two-electron integral symmetry is turned on.
 Leave Link  301 at Mon May 27 17:29:06 2019, MaxMem=   131072000 cpu:         0.0
 (Enter /applis/g09/l302.exe)
 NPDir=0 NMtPBC=     1 NCelOv=     1 NCel=       1 NClECP=     1 NCelD=      1
         NCelK=      1 NCelE2=     1 NClLst=     1 CellRange=     0.0.
 One-electron integrals computed using PRISM.
 One-electron integral symmetry used in STVInt
 NBasis=    24 RedAO= T EigKep=  7.55D-02  NBF=    11     2     4     7
 NBsUse=    24 1.00D-06 EigRej= -1.00D+00 NBFU=    11     2     4     7
 Precomputing XC quadrature grid using
 IXCGrd= 4 IRadAn=           0 IRanWt=          -1 IRanGd=           0 AccXCQ= 0.00D+00.
 Generated NRdTot=       0 NPtTot=           0 NUsed=           0 NTot=          32
 NSgBfM=    25    25    25    25    25 MxSgAt=     3 MxSgA2=     3.
 Leave Link  302 at Mon May 27 17:29:06 2019, MaxMem=   131072000 cpu:         0.1
 (Enter /applis/g09/l303.exe)
 DipDrv:  MaxL=1.
 Leave Link  303 at Mon May 27 17:29:06 2019, MaxMem=   131072000 cpu:         0.0
 (Enter /applis/g09/l401.exe)
 Initial guess from the checkpoint file:  "H2O_OPT_unrestricted.chk"
 B after Tr=     0.000000    0.000000    0.000000
         Rot=    1.000000    0.000000    0.000000    0.000000 Ang=   0.00 deg.
 Guess basis will be translated and rotated to current coordinates.
 JPrj=2 DoOrth=T DoCkMO=T.
 Initial guess orbital symmetries:
 Alpha Orbitals:
       Occupied  (A1) (A1) (B2) (B1) (A1) (A1)
       Virtual   (A1) (A1) (A1) (A1) (A1) (A1) (A1) (A2) (A2) (B1)
                 (B1) (B1) (B2) (B2) (B2) (B2) (B2) (B2)
 Beta  Orbitals:
       Occupied  (A1) (A1) (B2) (A1)
       Virtual   (A1) (A1) (A1) (A1) (A1) (A1) (A1) (A1) (A2) (A2)
                 (B1) (B1) (B1) (B1) (B2) (B2) (B2) (B2) (B2) (B2)
 The electronic state of the initial guess is 3-B1.
 Initial guess <Sx>= 0.0000 <Sy>= 0.0000 <Sz>= 1.0000 <S**2>= 2.0018 S= 1.0006
 Generating alternative initial guess.
 ExpMin= 1.22D-01 ExpMax= 2.27D+03 ExpMxC= 3.41D+02 IAcc=1 IRadAn=         1 AccDes= 0.00D+00
 Harris functional with IExCor=  402 and IRadAn=       1 diagonalized for initial guess.
 HarFok:  IExCor=  402 AccDes= 0.00D+00 IRadAn=         1 IDoV= 1 UseB2=F ITyADJ=14
 ICtDFT=  3500011 ScaDFX=  1.000000  1.000000  1.000000  1.000000
 FoFCou: FMM=F IPFlag=           0 FMFlag=      100000 FMFlg1=           0
         NFxFlg=           0 DoJE=T BraDBF=F KetDBF=T FulRan=T
         wScrn=  0.000000 ICntrl=     500 IOpCl=  0 I1Cent=   200000004 NGrid=           0
         NMat0=    1 NMatS0=      1 NMatT0=    0 NMatD0=    1 NMtDS0=    0 NMtDT0=    0
 Petite list used in FoFCou.
 Harris En= -76.0470501303223    
 Leave Link  401 at Mon May 27 17:29:06 2019, MaxMem=   131072000 cpu:         0.1
 (Enter /applis/g09/l502.exe)
 UHF open shell SCF:
 Using DIIS extrapolation, IDIIS=  1040.
 Integral symmetry usage will be decided dynamically.
 Keep R1 and R2 ints in memory in symmetry-blocked form, NReq=926891.
 IVT=       20839 IEndB=       20839 NGot=   131072000 MDV=   131025044
 LenX=   131025044 LenY=   131023978
 Requested convergence on RMS density matrix=1.00D-08 within 128 cycles.
 Requested convergence on MAX density matrix=1.00D-06.
 Requested convergence on             energy=1.00D-06.
 No special actions if energy rises.
 FoFCou: FMM=F IPFlag=           0 FMFlag=           0 FMFlg1=           0
         NFxFlg=           0 DoJE=F BraDBF=F KetDBF=F FulRan=T
         wScrn=  0.000000 ICntrl=     600 IOpCl=  0 I1Cent=           0 NGrid=           0
         NMat0=    1 NMatS0=    300 NMatT0=    0 NMatD0=    1 NMtDS0=    0 NMtDT0=    0
 Petite list used in FoFCou.
 Integral accuracy reduced to 1.0D-05 until final iterations.

 Cycle   1  Pass 0  IDiag  1:
 E= -76.1043073395080    
 DIIS: error= 2.02D-02 at cycle   1 NSaved=   1.
 NSaved= 1 IEnMin= 1 EnMin= -76.1043073395080     IErMin= 1 ErrMin= 2.02D-02
 ErrMax= 2.02D-02  0.00D+00 EMaxC= 1.00D-01 BMatC= 2.59D-02 BMatP= 2.59D-02
 IDIUse=3 WtCom= 7.98D-01 WtEn= 2.02D-01
 Coeff-Com:  0.100D+01
 Coeff-En:   0.100D+01
 Coeff:      0.100D+01
 Recover alternate guess density for next cycle.
 RMSDP=9.30D-03 MaxDP=7.12D-02              OVMax= 0.00D+00

 Cycle   2  Pass 0  IDiag  1:
 E= -76.1093074444620     Delta-E=       -0.005000104954 Rises=F Damp=F
 DIIS: error= 1.79D-02 at cycle   2 NSaved=   2.
 NSaved= 2 IEnMin= 2 EnMin= -76.1093074444620     IErMin= 2 ErrMin= 1.79D-02
 ErrMax= 1.79D-02  0.00D+00 EMaxC= 1.00D-01 BMatC= 1.46D-02 BMatP= 2.59D-02
 IDIUse=3 WtCom= 8.21D-01 WtEn= 1.79D-01
 Coeff-Com:  0.335D+00 0.665D+00
 Coeff-En:   0.000D+00 0.100D+01
 Coeff:      0.275D+00 0.725D+00
 Gap=     1.035 Goal=   None    Shift=    0.000
 Gap=     0.259 Goal=   None    Shift=    0.000
 RMSDP=2.16D-03 MaxDP=2.73D-02 DE=-5.00D-03 OVMax= 2.87D-02

 Cycle   3  Pass 0  IDiag  1:
 E= -76.1123915884005     Delta-E=       -0.003084143938 Rises=F Damp=F
 DIIS: error= 1.94D-03 at cycle   3 NSaved=   3.
 NSaved= 3 IEnMin= 3 EnMin= -76.1123915884005     IErMin= 3 ErrMin= 1.94D-03
 ErrMax= 1.94D-03  0.00D+00 EMaxC= 1.00D-01 BMatC= 1.63D-04 BMatP= 1.46D-02
 IDIUse=3 WtCom= 9.81D-01 WtEn= 1.94D-02
 Coeff-Com:  0.232D-02-0.813D-01 0.108D+01
 Coeff-En:   0.000D+00 0.000D+00 0.100D+01
 Coeff:      0.227D-02-0.797D-01 0.108D+01
 Gap=     0.121 Goal=   None    Shift=    0.000
 Gap=     0.218 Goal=   None    Shift=    0.000
 RMSDP=6.79D-04 MaxDP=7.61D-03 DE=-3.08D-03 OVMax= 4.88D-03

 Cycle   4  Pass 0  IDiag  1:
 E= -76.1124538040166     Delta-E=       -0.000062215616 Rises=F Damp=F
 DIIS: error= 3.32D-04 at cycle   4 NSaved=   4.
 NSaved= 4 IEnMin= 4 EnMin= -76.1124538040166     IErMin= 4 ErrMin= 3.32D-04
[...]
   3        3S          0.13702   0.24612   0.16766
   4        4PX         0.00000   0.00000   0.00000   0.00000
   5        4PY         0.00000   0.00000   0.00000   0.00000   0.28535
   6        4PZ         0.01100   0.02276   0.03824   0.00000   0.00000
   7        5PX         0.00000   0.00000   0.00000   0.00000   0.00000
   8        5PY         0.00000   0.00000   0.00000   0.00000   0.14176
   9        5PZ         0.00863   0.01894   0.02948   0.00000   0.00000
  10        6D 0       -0.00045  -0.00101  -0.00072   0.00000   0.00000
  11        6D+1        0.00000   0.00000   0.00000   0.00000   0.00000
  12        6D-1        0.00000   0.00000   0.00000   0.00000  -0.00164
  13        6D+2       -0.00408  -0.00968  -0.00641   0.00000   0.00000
  14        6D-2        0.00000   0.00000   0.00000   0.00000   0.00000
  15 2   H  1S          0.02795   0.05656   0.03588   0.00000   0.13022
  16        2S          0.00006   0.00517   0.00227   0.00000   0.04643
  17        3PX         0.00000   0.00000   0.00000   0.00000   0.00000
  18        3PY        -0.00636  -0.01104  -0.00718   0.00000  -0.01931
  19        3PZ         0.00126   0.00217   0.00200   0.00000   0.00334
  20 3   H  1S          0.02795   0.05656   0.03588   0.00000  -0.13022
  21        2S          0.00006   0.00517   0.00227   0.00000  -0.04643
  22        3PX         0.00000   0.00000   0.00000   0.00000   0.00000
  23        3PY         0.00636   0.01104   0.00718   0.00000  -0.01931
  24        3PZ         0.00126   0.00217   0.00200   0.00000  -0.00334
                           6         7         8         9        10
   6        4PZ         0.42330
   7        5PX         0.00000   0.00000
   8        5PY         0.00000   0.00000   0.07042
   9        5PZ         0.30959   0.00000   0.00000   0.22644
  10        6D 0       -0.00084   0.00000   0.00000  -0.00062   0.00000
  11        6D+1        0.00000   0.00000   0.00000   0.00000   0.00000
  12        6D-1        0.00000   0.00000  -0.00082   0.00000   0.00000
  13        6D+2        0.00093   0.00000   0.00000   0.00062   0.00002
  14        6D-2        0.00000   0.00000   0.00000   0.00000   0.00000
  15 2   H  1S         -0.03730   0.00000   0.06469  -0.02691  -0.00008
  16        2S         -0.02002   0.00000   0.02306  -0.01460   0.00002
  17        3PX         0.00000   0.00000   0.00000   0.00000   0.00000
  18        3PY         0.00484   0.00000  -0.00959   0.00347   0.00002
  19        3PZ         0.00992   0.00000   0.00166   0.00727  -0.00002
  20 3   H  1S         -0.03730   0.00000  -0.06469  -0.02691  -0.00008
  21        2S         -0.02002   0.00000  -0.02306  -0.01460   0.00002
  22        3PX         0.00000   0.00000   0.00000   0.00000   0.00000
  23        3PY        -0.00484   0.00000  -0.00959  -0.00347  -0.00002
  24        3PZ         0.00992   0.00000  -0.00166   0.00727  -0.00002
                          11        12        13        14        15
  11        6D+1        0.00000
  12        6D-1        0.00000   0.00001
  13        6D+2        0.00000   0.00000   0.00026
  14        6D-2        0.00000   0.00000   0.00000   0.00000
  15 2   H  1S          0.00000  -0.00075  -0.00164   0.00000   0.07211
  16        2S          0.00000  -0.00027  -0.00021   0.00000   0.02394
  17        3PX         0.00000   0.00000   0.00000   0.00000   0.00000
  18        3PY         0.00000   0.00011   0.00031   0.00000  -0.01106
  19        3PZ         0.00000  -0.00002  -0.00002   0.00000   0.00091
  20 3   H  1S          0.00000   0.00075  -0.00164   0.00000  -0.04674
  21        2S          0.00000   0.00027  -0.00021   0.00000  -0.01844
  22        3PX         0.00000   0.00000   0.00000   0.00000   0.00000
  23        3PY         0.00000   0.00011  -0.00031   0.00000  -0.00657
  24        3PZ         0.00000   0.00002  -0.00002   0.00000  -0.00213
                          16        17        18        19        20
  16        2S          0.00861
  17        3PX         0.00000   0.00000
  18        3PY        -0.00356   0.00000   0.00172
  19        3PZ         0.00010   0.00000  -0.00016   0.00028
  20 3   H  1S         -0.01844   0.00000   0.00657  -0.00213   0.07211
  21        2S         -0.00650   0.00000   0.00272  -0.00099   0.02394
  22        3PX         0.00000   0.00000   0.00000   0.00000   0.00000
  23        3PY        -0.00272   0.00000   0.00090  -0.00029   0.01106
  24        3PZ        -0.00099   0.00000   0.00029   0.00020   0.00091
                          21        22        23        24
  21        2S          0.00861
  22        3PX         0.00000   0.00000
  23        3PY         0.00356   0.00000   0.00172
  24        3PZ         0.00010   0.00000   0.00016   0.00028
    Full Mulliken population analysis:
                           1         2         3         4         5
   1 1   O  1S          2.15410
   2        2S         -0.11410   0.83788
   3        3S         -0.05478   0.50984   0.69258
   4        4PX         0.00000   0.00000   0.00000   0.48180
   5        4PY         0.00000   0.00000   0.00000   0.00000   0.54132
   6        4PZ         0.00000   0.00000   0.00000   0.00000   0.00000
   7        5PX         0.00000   0.00000   0.00000   0.15527   0.00000
   8        5PY         0.00000   0.00000   0.00000   0.00000   0.12993
   9        5PZ         0.00000   0.00000   0.00000   0.00000   0.00000
  10        6D 0        0.00000   0.00000   0.00000   0.00000   0.00000
  11        6D+1        0.00000   0.00000   0.00000   0.00000   0.00000
  12        6D-1        0.00000   0.00000   0.00000   0.00000   0.00000
  13        6D+2        0.00000   0.00000   0.00000   0.00000   0.00000
  14        6D-2        0.00000   0.00000   0.00000   0.00000   0.00000
  15 2   H  1S         -0.00014   0.00249  -0.06447   0.00000   0.04707
  16        2S          0.00322  -0.03931  -0.18491   0.00000   0.01039
  17        3PX         0.00000   0.00000   0.00000   0.00070   0.00000
  18        3PY        -0.00034   0.00547   0.00475   0.00000   0.00916
  19        3PZ        -0.00001   0.00012   0.00006   0.00000   0.00034
  20 3   H  1S         -0.00014   0.00249  -0.06447   0.00000   0.04707
  21        2S          0.00322  -0.03931  -0.18491   0.00000   0.01039
  22        3PX         0.00000   0.00000   0.00000   0.00070   0.00000
  23        3PY        -0.00034   0.00547   0.00475   0.00000   0.00916
  24        3PZ        -0.00001   0.00012   0.00006   0.00000   0.00034
                           6         7         8         9        10
   6        4PZ         0.87844
   7        5PX         0.00000   0.19845
   8        5PY         0.00000   0.00000   0.12391
   9        5PZ         0.31410   0.00000   0.00000   0.44665
  10        6D 0        0.00000   0.00000   0.00000   0.00000   0.00019
  11        6D+1        0.00000   0.00000   0.00000   0.00000   0.00000
  12        6D-1        0.00000   0.00000   0.00000   0.00000   0.00000
  13        6D+2        0.00000   0.00000   0.00000   0.00000   0.00000
  14        6D-2        0.00000   0.00000   0.00000   0.00000   0.00000
  15 2   H  1S          0.00097   0.00000   0.07136   0.00119   0.00023
  16        2S         -0.00027   0.00000   0.01918  -0.00163   0.00004
  17        3PX         0.00000   0.00150   0.00000   0.00000   0.00000
  18        3PY         0.00048   0.00000   0.00428   0.00050   0.00002
  19        3PZ         0.00135   0.00000   0.00024   0.00346   0.00001
  20 3   H  1S          0.00097   0.00000   0.07136   0.00119   0.00023
  21        2S         -0.00027   0.00000   0.01918  -0.00163   0.00004
  22        3PX         0.00000   0.00150   0.00000   0.00000   0.00000
  23        3PY         0.00048   0.00000   0.00428   0.00050   0.00002
  24        3PZ         0.00135   0.00000   0.00024   0.00346   0.00001
                          11        12        13        14        15
  11        6D+1        0.00002
  12        6D-1        0.00000   0.00002
  13        6D+2        0.00000   0.00000   0.00081
  14        6D-2        0.00000   0.00000   0.00000   0.00000
  15 2   H  1S          0.00000   0.00007   0.00133   0.00000   0.32709
  16        2S          0.00000   0.00001   0.00030   0.00000   0.18014
  17        3PX         0.00000   0.00000   0.00000   0.00000   0.00000
  18        3PY         0.00000   0.00002   0.00001   0.00000   0.00000
  19        3PZ         0.00000  -0.00001   0.00000   0.00000   0.00000
  20 3   H  1S          0.00000   0.00007   0.00133   0.00000   0.00032
  21        2S          0.00000   0.00001   0.00030   0.00000   0.01512
  22        3PX         0.00000   0.00000   0.00000   0.00000   0.00000
  23        3PY         0.00000   0.00002   0.00001   0.00000  -0.00010
  24        3PZ         0.00000  -0.00001   0.00000   0.00000   0.00000
                          16        17        18        19        20
  16        2S          0.29007
  17        3PX         0.00000   0.00019
  18        3PY         0.00000   0.00000   0.00277
  19        3PZ         0.00000   0.00000   0.00000   0.00060
  20 3   H  1S          0.01512   0.00000  -0.00010   0.00000   0.32709
  21        2S          0.07298   0.00000  -0.00061   0.00000   0.18014
  22        3PX         0.00000   0.00000   0.00000   0.00000   0.00000
  23        3PY        -0.00061   0.00000  -0.00001   0.00000   0.00000
  24        3PZ         0.00000   0.00000   0.00000   0.00000   0.00000
                          21        22        23        24
  21        2S          0.29007
  22        3PX         0.00000   0.00019
  23        3PY         0.00000   0.00000   0.00277
  24        3PZ         0.00000   0.00000   0.00000   0.00060
     Gross orbital populations:
                         Total     Alpha     Beta      Spin
   1 1   O  1S          1.99070   0.99581   0.99489   0.00092
   2        2S          1.17115   0.62961   0.54154   0.08807
   3        3S          0.65851   0.28510   0.37340  -0.08830
   4        4PX         0.63847   0.63847   0.00000   0.63847
   5        4PY         0.80517   0.38314   0.42203  -0.03889
   6        4PZ         1.19759   0.61450   0.58309   0.03140
   7        5PX         0.35672   0.35672   0.00000   0.35672
   8        5PY         0.44397   0.20730   0.23667  -0.02937
   9        5PZ         0.76781   0.37583   0.39198  -0.01615
  10        6D 0        0.00079   0.00076   0.00002   0.00074
  11        6D+1        0.00002   0.00002   0.00000   0.00002
  12        6D-1        0.00021   0.00012   0.00009   0.00003
  13        6D+2        0.00411   0.00326   0.00085   0.00241
  14        6D-2        0.00000   0.00000   0.00000   0.00000
  15 2   H  1S          0.58268   0.41255   0.17013   0.24243
  16        2S          0.36472   0.32477   0.03995   0.28482
  17        3PX         0.00240   0.00240   0.00000   0.00240
  18        3PY         0.02641   0.01184   0.01457  -0.00274
  19        3PZ         0.00618   0.00311   0.00307   0.00005
  20 3   H  1S          0.58268   0.41255   0.17013   0.24243
  21        2S          0.36472   0.32477   0.03995   0.28482
  22        3PX         0.00240   0.00240   0.00000   0.00240
  23        3PY         0.02641   0.01184   0.01457  -0.00274
  24        3PZ         0.00618   0.00311   0.00307   0.00005
          Condensed to atoms (all electrons):
               1          2          3
     1  O    8.236674  -0.100728  -0.100728
     2  H   -0.100728   0.981003   0.102116
     3  H   -0.100728   0.102116   0.981003
          Atomic-Atomic Spin Densities.
               1          2          3
     1  O    1.620705  -0.337308  -0.337308
     2  H   -0.337308   0.750006   0.114258
     3  H   -0.337308   0.114258   0.750006
 Mulliken charges and spin densities:
               1          2
     1  O   -0.035218   0.946089
     2  H    0.017609   0.526956
     3  H    0.017609   0.526956
 Sum of Mulliken charges =   0.00000   2.00000
 Mulliken charges and spin densities with hydrogens summed into heavy atoms:
               1          2
     1  O    0.000000   2.000000
 Electronic spatial extent (au):  <R**2>=             26.9488
 Charge=              0.0000 electrons
 Dipole moment (field-independent basis, Debye):
    X=              0.0000    Y=              0.0000    Z=             -0.1590  Tot=              0.1590
 Quadrupole moment (field-independent basis, Debye-Ang):
   XX=             -6.9738   YY=             -7.1771   ZZ=             -8.0644
   XY=              0.0000   XZ=              0.0000   YZ=              0.0000
 Traceless Quadrupole moment (field-independent basis, Debye-Ang):
   XX=              0.4313   YY=              0.2280   ZZ=             -0.6593
   XY=              0.0000   XZ=              0.0000   YZ=              0.0000
 Octapole moment (field-independent basis, Debye-Ang**2):
  XXX=              0.0000  YYY=              0.0000  ZZZ=              0.4924  XYY=              0.0000
  XXY=              0.0000  XXZ=              0.2001  XZZ=              0.0000  YZZ=              0.0000
  YYZ=              0.1344  XYZ=              0.0000
 Hexadecapole moment (field-independent basis, Debye-Ang**3):
 XXXX=             -5.9371 YYYY=            -29.1738 ZZZZ=             -7.5288 XXXY=              0.0000
 XXXZ=              0.0000 YYYX=              0.0000 YYYZ=              0.0000 ZZZX=              0.0000
 ZZZY=              0.0000 XXYY=             -5.9526 XXZZ=             -2.2429 YYZZ=             -6.2073
 XXYZ=              0.0000 YYXZ=              0.0000 ZZXY=              0.0000
 N-N= 7.211163111428D+00 E-N=-1.942608682505D+02  KE= 7.576591857756D+01
 Symmetry A1   KE= 6.980028961202D+01
 Symmetry A2   KE= 1.072255505227D-34
 Symmetry B1   KE= 2.575897630733D+00
 Symmetry B2   KE= 3.389731334806D+00
 Orbital energies and kinetic energies (alpha):
                                 1                 2
   1         (A1)--O         -19.255002         28.770065
   2         (A1)--O          -1.014774          3.210010
   3         (B2)--O          -0.559671          1.633134
   4         (B1)--O          -0.455193          2.575898
   5         (A1)--O          -0.384996          2.448699
   6         (A1)--O          -0.172270          1.145569
   7         (B2)--V           0.010951          1.433112
   8         (A1)--V           0.346805          1.155281
   9         (B2)--V           0.497034          2.003523
  10         (B1)--V           0.785226          3.327881
  11         (A1)--V           0.830306          3.413903
  12         (A1)--V           0.963794          4.177927
  13         (B2)--V           1.168420          2.630424
  14         (A2)--V           1.251116          2.015781
  15         (B2)--V           1.361380          2.860974
  16         (A1)--V           1.539181          2.392161
  17         (B1)--V           1.546590          2.281536
  18         (A1)--V           1.667595          2.623489
  19         (B2)--V           2.093620          3.115477
  20         (B1)--V           2.519151          4.204487
  21         (A1)--V           2.521500          4.204229
  22         (A2)--V           2.730644          4.396289
  23         (B2)--V           2.910612          4.523738
  24         (A1)--V           3.607582          5.359886
 Orbital energies and kinetic energies (beta):
                                 1                 2
   1         (A1)--O         -19.224153         28.791654
   2         (A1)--O          -0.929267          3.058957
   3         (B2)--O          -0.514697          1.756598
   4         (A1)--O          -0.348912          2.375337
   5         (B1)--V          -0.193969          2.183437
   6         (A1)--V          -0.040128          1.032489
   7         (B2)--V           0.067064          1.184726
   8         (A1)--V           0.406476          1.295328
   9         (B2)--V           0.565461          2.170506
  10         (A1)--V           0.855302          3.500712
  11         (B1)--V           0.891087          3.716120
  12         (A1)--V           1.004414          4.243615
  13         (B2)--V           1.206071          2.702059
  14         (A2)--V           1.316971          2.015613
  15         (B2)--V           1.408007          2.747742
  16         (A1)--V           1.598912          2.397395
  17         (B1)--V           1.615085          2.285932
  18         (A1)--V           1.731344          2.647060
  19         (B2)--V           2.147012          3.123851
  20         (B1)--V           2.610601          4.204314
  21         (A1)--V           2.621939          4.204959
  22         (A2)--V           2.818350          4.396458
  23         (B2)--V           2.938443          4.514902
  24         (A1)--V           3.657977          5.353712
 Total kinetic energy from orbitals= 7.576591857756D+01
                          Isotropic Fermi Contact Couplings
        Atom                 a.u.       MegaHertz       Gauss      10(-4) cm-1
     1  O(17)              1.84674    -559.74352    -199.73040    -186.71034
     2  H(1)               0.12995     290.43316     103.63377      96.87807
     3  H(1)               0.12995     290.43316     103.63377      96.87807
 --------------------------------------------------------
       Center         ----  Spin Dipole Couplings  ----
                      3XX-RR        3YY-RR        3ZZ-RR
 --------------------------------------------------------
     1   Atom        3.889910     -2.268577     -1.621333
     2   Atom       -0.025002      0.080882     -0.055880
     3   Atom       -0.025002      0.080882     -0.055880
 --------------------------------------------------------
                        XY            XZ            YZ
 --------------------------------------------------------
     1   Atom        0.000000      0.000000      0.000000
     2   Atom        0.000000      0.000000     -0.018761
     3   Atom        0.000000      0.000000      0.018761
 --------------------------------------------------------


 ---------------------------------------------------------------------------------
              Anisotropic Spin Dipole Couplings in Principal Axis System
 ---------------------------------------------------------------------------------

       Atom             a.u.   MegaHertz   Gauss  10(-4) cm-1        Axes

              Baa    -2.2686   164.153    58.574    54.755  0.0000  1.0000  0.0000
     1 O(17)  Bbb    -1.6213   117.319    41.862    39.133  0.0000  0.0000  1.0000
              Bcc     3.8899  -281.471  -100.436   -93.889  1.0000  0.0000  0.0000
 
              Baa    -0.0584   -31.163   -11.120   -10.395  0.0000  0.1335  0.9911
     2 H(1)   Bbb    -0.0250   -13.340    -4.760    -4.450  1.0000  0.0000  0.0000
              Bcc     0.0834    44.503    15.880    14.845  0.0000  0.9911 -0.1335
 
              Baa    -0.0584   -31.163   -11.120   -10.395  0.0000 -0.1335  0.9911
     3 H(1)   Bbb    -0.0250   -13.340    -4.760    -4.450  1.0000  0.0000  0.0000
              Bcc     0.0834    44.503    15.880    14.845  0.0000  0.9911  0.1335
 

 ---------------------------------------------------------------------------------

 No NMR shielding tensors so no spin-rotation constants.
 Leave Link  601 at Mon May 27 17:29:18 2019, MaxMem=   131072000 cpu:         0.2
 (Enter /applis/g09/l9999.exe)
 1\1\GINC-MOLTECH-CALC0\FOpt\UB3LYP\SVP\H2O1(3)\TCAUCHY\27-May-2019\0\\
 #P OPT B3LYP svp Direct gfprint pop=(full)\\OPT H20 B3LYP 6-31G*\\0,3\
 O,0.,0.,-0.3807627738\H,0.,1.1979490127,-0.5596186131\H,0.,-1.19794901
 27,-0.5596186131\\Version=EM64L-G09RevD.01\State=3-B1\HF=-76.1280338\S
 2=2.005266\S2-1=0.\S2A=2.000008\RMSD=9.054e-10\RMSF=1.329e-08\Dipole=0
 .,0.,-0.0625367\Quadrupole=0.3206755,0.1694998,-0.4901752,0.,0.,0.\PG=
 C02V [C2(O1),SGV(H2)]\\@


 WHEN IT COMES TO CASH FLOW, IT SEEMS LIKE THE TIDE IS ALWAYS GOING OUT.
 Job cpu time:       0 days  0 hours  0 minutes 13.8 seconds.
 File lengths (MBytes):  RWF=      5 Int=      0 D2E=      0 Chk=      1 Scr=      1
 Normal termination of Gaussian 09 at Mon May 27 17:29:18 2019.
