 Entering Gaussian System, Link 0=g09
 Input=H2O_OPT_basis2.inp
 Output=H2O_OPT_basis2.log
 Initial command:
 /applis/g09/l1.exe "/tmp/Gau-12181.inp" -scrdir="/tmp/"
 Entering Link 1 = /applis/g09/l1.exe PID=     12183.
  
 Copyright (c) 1988,1990,1992,1993,1995,1998,2003,2009,2013,
            Gaussian, Inc.  All Rights Reserved.
  
 This is part of the Gaussian(R) 09 program.  It is based on
 the Gaussian(R) 03 system (copyright 2003, Gaussian, Inc.),
 the Gaussian(R) 98 system (copyright 1998, Gaussian, Inc.),
 the Gaussian(R) 94 system (copyright 1995, Gaussian, Inc.),
 the Gaussian 92(TM) system (copyright 1992, Gaussian, Inc.),
 the Gaussian 90(TM) system (copyright 1990, Gaussian, Inc.),
 the Gaussian 88(TM) system (copyright 1988, Gaussian, Inc.),
 the Gaussian 86(TM) system (copyright 1986, Carnegie Mellon
 University), and the Gaussian 82(TM) system (copyright 1983,
 Carnegie Mellon University). Gaussian is a federally registered
 trademark of Gaussian, Inc.
  
 This software contains proprietary and confidential information,
 including trade secrets, belonging to Gaussian, Inc.
  
 This software is provided under written license and may be
 used, copied, transmitted, or stored only in accord with that
 written license.
  
 The following legend is applicable only to US Government
 contracts under FAR:
  
                    RESTRICTED RIGHTS LEGEND
  
 Use, reproduction and disclosure by the US Government is
 subject to restrictions as set forth in subparagraphs (a)
 and (c) of the Commercial Computer Software - Restricted
 Rights clause in FAR 52.227-19.
  
 Gaussian, Inc.
 340 Quinnipiac St., Bldg. 40, Wallingford CT 06492
  
  
 ---------------------------------------------------------------
 Warning -- This program may not be used in any manner that
 competes with the business of Gaussian, Inc. or will provide
 assistance to any competitor of Gaussian, Inc.  The licensee
 of this program is prohibited from giving any competitor of
 Gaussian, Inc. access to this program.  By using this program,
 the user acknowledges that Gaussian, Inc. is engaged in the
 business of creating and licensing software in the field of
 computational chemistry and represents and warrants to the
 licensee that it is not a competitor of Gaussian, Inc. and that
 it will not use this program in any manner prohibited above.
 ---------------------------------------------------------------
  

 Cite this work as:
 Gaussian 09, Revision D.01,
 M. J. Frisch, G. W. Trucks, H. B. Schlegel, G. E. Scuseria, 
 M. A. Robb, J. R. Cheeseman, G. Scalmani, V. Barone, B. Mennucci, 
 G. A. Petersson, H. Nakatsuji, M. Caricato, X. Li, H. P. Hratchian, 
 A. F. Izmaylov, J. Bloino, G. Zheng, J. L. Sonnenberg, M. Hada, 
 M. Ehara, K. Toyota, R. Fukuda, J. Hasegawa, M. Ishida, T. Nakajima, 
 Y. Honda, O. Kitao, H. Nakai, T. Vreven, J. A. Montgomery, Jr., 
 J. E. Peralta, F. Ogliaro, M. Bearpark, J. J. Heyd, E. Brothers, 
 K. N. Kudin, V. N. Staroverov, T. Keith, R. Kobayashi, J. Normand, 
 K. Raghavachari, A. Rendell, J. C. Burant, S. S. Iyengar, J. Tomasi, 
 M. Cossi, N. Rega, J. M. Millam, M. Klene, J. E. Knox, J. B. Cross, 
 V. Bakken, C. Adamo, J. Jaramillo, R. Gomperts, R. E. Stratmann, 
 O. Yazyev, A. J. Austin, R. Cammi, C. Pomelli, J. W. Ochterski, 
 R. L. Martin, K. Morokuma, V. G. Zakrzewski, G. A. Voth, 
 P. Salvador, J. J. Dannenberg, S. Dapprich, A. D. Daniels, 
 O. Farkas, J. B. Foresman, J. V. Ortiz, J. Cioslowski, 
 and D. J. Fox, Gaussian, Inc., Wallingford CT, 2013.
 
 ******************************************
 Gaussian 09:  EM64L-G09RevD.01 24-Apr-2013
                27-May-2019 
 ******************************************
 %Chk=H2O_OPT_basis2
 %nprocshared=1
 Will use up to    1 processors via shared memory.
 %mem=1000MB
 ------------------------------------------
 #P OPT B3LYP svp Direct gfprint pop=(full)
 ------------------------------------------
 1/14=-1,18=20,19=15,26=3,38=1/1,3;
 2/9=110,12=2,17=6,18=5,40=1/2;
 3/5=18,7=101,11=2,16=1,24=100,25=1,30=1,71=1,74=-5/1,2,3;
 4//1;
 5/5=2,38=5/2;
 6/7=3,28=1/1;
 7//1,2,3,16;
 1/14=-1,18=20,19=15,26=3/3(2);
 2/9=110/2;
 99//99;
 2/9=110/2;
 3/5=18,7=101,11=2,16=1,25=1,30=1,71=1,74=-5/1,2,3;
 4/5=5,16=3,69=1/1;
 5/5=2,38=5/2;
 7//1,2,3,16;
 1/14=-1,18=20,19=15,26=3/3(-5);
 2/9=110/2;
 6/7=3,19=2,28=1/1;
 99/9=1/99;
 Leave Link    1 at Mon May 27 17:25:59 2019, MaxMem=   131072000 cpu:         0.0
 (Enter /applis/g09/l101.exe)
 --------------------
 OPT H20 B3LYP 6-31G*
 --------------------
 Symbolic Z-matrix:
 Charge =  0 Multiplicity = 1
 O                     0.        0.       -0.111 
 H                     0.        0.75941  -0.6945 
 H                     0.       -0.75941  -0.6945 
 
 NAtoms=      3 NQM=        3 NQMF=       0 NMMI=      0 NMMIF=      0
                NMic=       0 NMicF=      0.
                    Isotopes and Nuclear Properties:
 (Nuclear quadrupole moments (NQMom) in fm**2, nuclear magnetic moments (NMagM)
  in nuclear magnetons)

  Atom         1           2           3
 IAtWgt=          16           1           1
 AtmWgt=  15.9949146   1.0078250   1.0078250
 NucSpn=           0           1           1
 AtZEff=   0.0000000   0.0000000   0.0000000
 NQMom=    0.0000000   0.0000000   0.0000000
 NMagM=    0.0000000   2.7928460   2.7928460
 AtZNuc=   8.0000000   1.0000000   1.0000000
 Leave Link  101 at Mon May 27 17:25:59 2019, MaxMem=   131072000 cpu:         0.1
 (Enter /applis/g09/l103.exe)

 GradGradGradGradGradGradGradGradGradGradGradGradGradGradGradGradGradGrad
 Berny optimization.
 Initialization pass.
                           ----------------------------
                           !    Initial Parameters    !
                           ! (Angstroms and Degrees)  !
 --------------------------                            --------------------------
 ! Name  Definition              Value          Derivative Info.                !
 --------------------------------------------------------------------------------
 ! R1    R(1,2)                  0.9577         estimate D2E/DX2                !
 ! R2    R(1,3)                  0.9577         estimate D2E/DX2                !
 ! A1    A(2,1,3)              104.9259         estimate D2E/DX2                !
 --------------------------------------------------------------------------------
 Trust Radius=3.00D-01 FncErr=1.00D-07 GrdErr=1.00D-06
 Number of steps in this run=     20 maximum allowed number of steps=    100.
 GradGradGradGradGradGradGradGradGradGradGradGradGradGradGradGradGradGrad

 Leave Link  103 at Mon May 27 17:25:59 2019, MaxMem=   131072000 cpu:         0.0
 (Enter /applis/g09/l202.exe)
                          Input orientation:                          
 ---------------------------------------------------------------------
 Center     Atomic      Atomic             Coordinates (Angstroms)
 Number     Number       Type             X           Y           Z
 ---------------------------------------------------------------------
      1          8           0        0.000000    0.000000   -0.111004
      2          1           0        0.000000    0.759407   -0.694498
      3          1           0        0.000000   -0.759407   -0.694498
 ---------------------------------------------------------------------
                    Distance matrix (angstroms):
                    1          2          3
     1  O    0.000000
     2  H    0.957687   0.000000
     3  H    0.957687   1.518814   0.000000
 Stoichiometry    H2O
 Framework group  C2V[C2(O),SGV(H2)]
 Deg. of freedom     2
 Full point group                 C2V     NOp   4
 Largest Abelian subgroup         C2V     NOp   4
 Largest concise Abelian subgroup C2      NOp   2
                         Standard orientation:                         
 ---------------------------------------------------------------------
 Center     Atomic      Atomic             Coordinates (Angstroms)
 Number     Number       Type             X           Y           Z
 ---------------------------------------------------------------------
      1          8           0        0.000000    0.000000    0.116699
      2          1           0        0.000000    0.759407   -0.466795
      3          1           0        0.000000   -0.759407   -0.466795
 ---------------------------------------------------------------------
 Rotational constants (GHZ):    829.2293618    434.7632886    285.2219783
 Leave Link  202 at Mon May 27 17:25:59 2019, MaxMem=   131072000 cpu:         0.0
 (Enter /applis/g09/l301.exe)
 Standard basis: SVP (5D, 7F)
 Ernie: Thresh=  0.10000D-02 Tol=  0.10000D-05 Strict=F.
 AO basis set (Overlap normalization):
 Atom O1       Shell     1 S   5     bf    1 -     1          0.000000000000          0.000000000000          0.220528772036
      0.2266176779D+04 -0.5389349396D-02
      0.3408701019D+03 -0.4023472220D-01
      0.7736313517D+02 -0.1800818424D+00
      0.2147964494D+02 -0.4682885774D+00
      0.6658943310D+01 -0.4469261703D+00
 Atom O1       Shell     2 S   1     bf    2 -     2          0.000000000000          0.000000000000          0.220528772036
      0.8097597600D+00  0.1000000000D+01
 Atom O1       Shell     3 S   1     bf    3 -     3          0.000000000000          0.000000000000          0.220528772036
      0.2553077200D+00  0.1000000000D+01
 Atom O1       Shell     4 P   3     bf    4 -     6          0.000000000000          0.000000000000          0.220528772036
      0.1772150432D+02  0.6263024412D-01
      0.3863550540D+01  0.3333113880D+00
      0.1048092090D+01  0.7414863817D+00
 Atom O1       Shell     5 P   1     bf    7 -     9          0.000000000000          0.000000000000          0.220528772036
      0.2764154400D+00  0.1000000000D+01
 Atom O1       Shell     6 D   1     bf   10 -    14          0.000000000000          0.000000000000          0.220528772036
      0.1200000000D+01  0.1000000000D+01
 Atom H2       Shell     7 S   3     bf   15 -    15          0.000000000000          1.435071253396         -0.882115088146
      0.1301070100D+02  0.3348548818D-01
      0.1962257200D+01  0.2347218706D+00
      0.4445379600D+00  0.8137702843D+00
 Atom H2       Shell     8 S   1     bf   16 -    16          0.000000000000          1.435071253396         -0.882115088146
      0.1219496200D+00  0.1000000000D+01
 Atom H2       Shell     9 P   1     bf   17 -    19          0.000000000000          1.435071253396         -0.882115088146
      0.8000000000D+00  0.1000000000D+01
 Atom H3       Shell    10 S   3     bf   20 -    20          0.000000000000         -1.435071253396         -0.882115088146
      0.1301070100D+02  0.3348548818D-01
      0.1962257200D+01  0.2347218706D+00
      0.4445379600D+00  0.8137702843D+00
 Atom H3       Shell    11 S   1     bf   21 -    21          0.000000000000         -1.435071253396         -0.882115088146
      0.1219496200D+00  0.1000000000D+01
 Atom H3       Shell    12 P   1     bf   22 -    24          0.000000000000         -1.435071253396         -0.882115088146
      0.8000000000D+00  0.1000000000D+01
 There are    12 symmetry adapted cartesian basis functions of A1  symmetry.
 There are     2 symmetry adapted cartesian basis functions of A2  symmetry.
 There are     4 symmetry adapted cartesian basis functions of B1  symmetry.
 There are     7 symmetry adapted cartesian basis functions of B2  symmetry.
 There are    11 symmetry adapted basis functions of A1  symmetry.
 There are     2 symmetry adapted basis functions of A2  symmetry.
 There are     4 symmetry adapted basis functions of B1  symmetry.
 There are     7 symmetry adapted basis functions of B2  symmetry.
    24 basis functions,    39 primitive gaussians,    25 cartesian basis functions
     5 alpha electrons        5 beta electrons
       nuclear repulsion energy         9.1893367177 Hartrees.
 IExCor=  402 DFT=T Ex+Corr=B3LYP ExCW=0 ScaHFX=  0.200000
 ScaDFX=  0.800000  0.720000  1.000000  0.810000 ScalE2=  1.000000  1.000000
 IRadAn=      0 IRanWt=     -1 IRanGd=            0 ICorTp=0 IEmpDi=  4
 NAtoms=    3 NActive=    3 NUniq=    2 SFac= 2.25D+00 NAtFMM=   60 NAOKFM=F Big=F
 Integral buffers will be    131072 words long.
 Raffenetti 2 integral format.
 Two-electron integral symmetry is turned on.
 Leave Link  301 at Mon May 27 17:25:59 2019, MaxMem=   131072000 cpu:         0.0
 (Enter /applis/g09/l302.exe)
 NPDir=0 NMtPBC=     1 NCelOv=     1 NCel=       1 NClECP=     1 NCelD=      1
         NCelK=      1 NCelE2=     1 NClLst=     1 CellRange=     0.0.
 One-electron integrals computed using PRISM.
 One-electron integral symmetry used in STVInt
 NBasis=    24 RedAO= T EigKep=  5.93D-02  NBF=    11     2     4     7
 NBsUse=    24 1.00D-06 EigRej= -1.00D+00 NBFU=    11     2     4     7
 Precomputing XC quadrature grid using
 IXCGrd= 4 IRadAn=           0 IRanWt=          -1 IRanGd=           0 AccXCQ= 0.00D+00.
 Generated NRdTot=       0 NPtTot=           0 NUsed=           0 NTot=          32
 NSgBfM=    25    25    25    25    25 MxSgAt=     3 MxSgA2=     3.
 Leave Link  302 at Mon May 27 17:25:59 2019, MaxMem=   131072000 cpu:         0.1
 (Enter /applis/g09/l303.exe)
 DipDrv:  MaxL=1.
 Leave Link  303 at Mon May 27 17:25:59 2019, MaxMem=   131072000 cpu:         0.0
 (Enter /applis/g09/l401.exe)
 ExpMin= 1.22D-01 ExpMax= 2.27D+03 ExpMxC= 3.41D+02 IAcc=1 IRadAn=         1 AccDes= 0.00D+00
 Harris functional with IExCor=  402 and IRadAn=       1 diagonalized for initial guess.
 HarFok:  IExCor=  402 AccDes= 0.00D+00 IRadAn=         1 IDoV= 1 UseB2=F ITyADJ=14
 ICtDFT=  3500011 ScaDFX=  1.000000  1.000000  1.000000  1.000000
 FoFCou: FMM=F IPFlag=           0 FMFlag=      100000 FMFlg1=           0
         NFxFlg=           0 DoJE=T BraDBF=F KetDBF=T FulRan=T
         wScrn=  0.000000 ICntrl=     500 IOpCl=  0 I1Cent=   200000004 NGrid=           0
         NMat0=    1 NMatS0=      1 NMatT0=    0 NMatD0=    1 NMtDS0=    0 NMtDT0=    0
 Petite list used in FoFCou.
 Harris En= -76.3969328750875    
 JPrj=0 DoOrth=F DoCkMO=F.
 Initial guess orbital symmetries:
       Occupied  (A1) (A1) (B2) (A1) (B1)
       Virtual   (A1) (B2) (B2) (A1) (A1) (B1) (B2) (A1) (A2) (A1)
                 (B1) (B2) (B2) (A1) (B1) (A2) (A1) (A1) (B2)
 The electronic state of the initial guess is 1-A1.
 Leave Link  401 at Mon May 27 17:25:59 2019, MaxMem=   131072000 cpu:         0.1
 (Enter /applis/g09/l502.exe)
 Closed shell SCF:
 Using DIIS extrapolation, IDIIS=  1040.
 Integral symmetry usage will be decided dynamically.
 Keep R1 ints in memory in symmetry-blocked form, NReq=926891.
 IVT=       20839 IEndB=       20839 NGot=   131072000 MDV=   131037463
 LenX=   131037463 LenY=   131036397
 Requested convergence on RMS density matrix=1.00D-08 within 128 cycles.
 Requested convergence on MAX density matrix=1.00D-06.
 Requested convergence on             energy=1.00D-06.
 No special actions if energy rises.
 FoFCou: FMM=F IPFlag=           0 FMFlag=           0 FMFlg1=           0
         NFxFlg=           0 DoJE=F BraDBF=F KetDBF=F FulRan=T
         wScrn=  0.000000 ICntrl=     600 IOpCl=  0 I1Cent=           0 NGrid=           0
         NMat0=    1 NMatS0=    300 NMatT0=    0 NMatD0=    1 NMtDS0=    0 NMtDT0=    0
 Petite list used in FoFCou.
 Integral accuracy reduced to 1.0D-05 until final iterations.

 Cycle   1  Pass 0  IDiag  1:
 E= -76.2808070005441    
 DIIS: error= 7.87D-02 at cycle   1 NSaved=   1.
 NSaved= 1 IEnMin= 1 EnMin= -76.2808070005441     IErMin= 1 ErrMin= 7.87D-02
 ErrMax= 7.87D-02  0.00D+00 EMaxC= 1.00D-01 BMatC= 1.04D-01 BMatP= 1.04D-01
 IDIUse=3 WtCom= 2.13D-01 WtEn= 7.87D-01
 Coeff-Com:  0.100D+01
 Coeff-En:   0.100D+01
 Coeff:      0.100D+01
 Gap=     0.192 Goal=   None    Shift=    0.000
 GapD=    0.192 DampG=1.000 DampE=0.500 DampFc=0.5000 IDamp=-1.
 Damping current iteration by 5.00D-01
 RMSDP=2.07D-02 MaxDP=1.66D-01              OVMax= 2.00D-01

 Cycle   2  Pass 0  IDiag  1:
 E= -76.3078217706649     Delta-E=       -0.027014770121 Rises=F Damp=T
 DIIS: error= 1.78D-02 at cycle   2 NSaved=   2.
 NSaved= 2 IEnMin= 2 EnMin= -76.3078217706649     IErMin= 2 ErrMin= 1.78D-02
 ErrMax= 1.78D-02  0.00D+00 EMaxC= 1.00D-01 BMatC= 5.36D-03 BMatP= 1.04D-01
 IDIUse=3 WtCom= 8.22D-01 WtEn= 1.78D-01
 Coeff-Com:  0.174D+00 0.826D+00
 Coeff-En:   0.292D+00 0.708D+00
 Coeff:      0.195D+00 0.805D+00
 Gap=     0.327 Goal=   None    Shift=    0.000
 RMSDP=2.37D-03 MaxDP=2.91D-02 DE=-2.70D-02 OVMax= 1.10D-01

 Cycle   3  Pass 0  IDiag  1:
 E= -76.3580173359336     Delta-E=       -0.050195565269 Rises=F Damp=F
 DIIS: error= 2.46D-03 at cycle   3 NSaved=   3.
 NSaved= 3 IEnMin= 3 EnMin= -76.3580173359336     IErMin= 3 ErrMin= 2.46D-03
 ErrMax= 2.46D-03  0.00D+00 EMaxC= 1.00D-01 BMatC= 1.34D-04 BMatP= 5.36D-03
 IDIUse=3 WtCom= 9.75D-01 WtEn= 2.46D-02
 Coeff-Com:  0.350D-01 0.153D-01 0.950D+00
 Coeff-En:   0.000D+00 0.000D+00 0.100D+01
 Coeff:      0.341D-01 0.149D-01 0.951D+00
 Gap=     0.339 Goal=   None    Shift=    0.000
 RMSDP=3.13D-04 MaxDP=2.76D-03 DE=-5.02D-02 OVMax= 2.53D-03

 Cycle   4  Pass 0  IDiag  1:
 E= -76.3581067149382     Delta-E=       -0.000089379005 Rises=F Damp=F
 DIIS: error= 3.00D-04 at cycle   4 NSaved=   4.
 NSaved= 4 IEnMin= 4 EnMin= -76.3581067149382     IErMin= 4 ErrMin= 3.00D-04
 ErrMax= 3.00D-04  0.00D+00 EMaxC= 1.00D-01 BMatC= 1.87D-06 BMatP= 1.34D-04
 IDIUse=3 WtCom= 9.97D-01 WtEn= 3.00D-03
 Coeff-Com:  0.453D-02-0.168D-01 0.206D+00 0.806D+00
 Coeff-En:   0.000D+00 0.000D+00 0.000D+00 0.100D+01
 Coeff:      0.451D-02-0.167D-01 0.205D+00 0.807D+00
 Gap=     0.339 Goal=   None    Shift=    0.000
 RMSDP=2.56D-05 MaxDP=1.93D-04 DE=-8.94D-05 OVMax= 2.43D-04

 Cycle   5  Pass 0  IDiag  1:
 E= -76.3581078700638     Delta-E=       -0.000001155126 Rises=F Damp=F
 DIIS: error= 4.87D-05 at cycle   5 NSaved=   5.
 NSaved= 5 IEnMin= 5 EnMin= -76.3581078700638     IErMin= 5 ErrMin= 4.87D-05
 ErrMax= 4.87D-05  0.00D+00 EMaxC= 1.00D-01 BMatC= 3.52D-08 BMatP= 1.87D-06
 IDIUse=1 WtCom= 1.00D+00 WtEn= 0.00D+00
 Coeff-Com:  0.482D-03-0.483D-03 0.590D-03-0.116D-01 0.101D+01
 Coeff:      0.482D-03-0.483D-03 0.590D-03-0.116D-01 0.101D+01
 Gap=     0.339 Goal=   None    Shift=    0.000
 RMSDP=4.52D-06 MaxDP=4.75D-05 DE=-1.16D-06 OVMax= 4.10D-05

 Initial convergence to 1.0D-05 achieved.  Increase integral accuracy.
 Cycle   6  Pass 1  IDiag  1:
 E= -76.3581115501589     Delta-E=       -0.000003680095 Rises=F Damp=F
 DIIS: error= 2.93D-06 at cycle   1 NSaved=   1.
 NSaved= 1 IEnMin= 1 EnMin= -76.3581115501589     IErMin= 1 ErrMin= 2.93D-06
 ErrMax= 2.93D-06  0.00D+00 EMaxC= 1.00D-01 BMatC= 1.37D-10 BMatP= 1.37D-10
 IDIUse=1 WtCom= 1.00D+00 WtEn= 0.00D+00
 Coeff-Com:  0.100D+01
 Coeff:      0.100D+01
 Gap=     0.339 Goal=   None    Shift=    0.000
 RMSDP=4.52D-06 MaxDP=4.75D-05 DE=-3.68D-06 OVMax= 4.17D-06

 Cycle   7  Pass 1  IDiag  1:
 E= -76.3581115502524     Delta-E=       -0.000000000093 Rises=F Damp=F
 DIIS: error= 3.77D-07 at cycle   2 NSaved=   2.
 NSaved= 2 IEnMin= 2 EnMin= -76.3581115502524     IErMin= 2 ErrMin= 3.77D-07
 ErrMax= 3.77D-07  0.00D+00 EMaxC= 1.00D-01 BMatC= 3.77D-12 BMatP= 1.37D-10
 IDIUse=1 WtCom= 1.00D+00 WtEn= 0.00D+00
 Coeff-Com:  0.270D-01 0.973D+00
 Coeff:      0.270D-01 0.973D+00
 Gap=     0.339 Goal=   None    Shift=    0.000
 RMSDP=8.61D-08 MaxDP=7.68D-07 DE=-9.35D-11 OVMax= 1.07D-06

 Cycle   8  Pass 1  IDiag  1:
 E= -76.3581115502526     Delta-E=        0.000000000000 Rises=F Damp=F
 DIIS: error= 4.22D-07 at cycle   3 NSaved=   3.
 NSaved= 3 IEnMin= 3 EnMin= -76.3581115502526     IErMin= 2 ErrMin= 3.77D-07
 ErrMax= 4.22D-07  0.00D+00 EMaxC= 1.00D-01 BMatC= 3.48D-12 BMatP= 3.77D-12
 IDIUse=1 WtCom= 1.00D+00 WtEn= 0.00D+00
 Coeff-Com: -0.506D-02 0.491D+00 0.514D+00
 Coeff:     -0.506D-02 0.491D+00 0.514D+00
 Gap=     0.339 Goal=   None    Shift=    0.000
 RMSDP=5.71D-08 MaxDP=4.70D-07 DE=-2.56D-13 OVMax= 5.29D-07

 Cycle   9  Pass 1  IDiag  1:
 E= -76.3581115502549     Delta-E=       -0.000000000002 Rises=F Damp=F
 DIIS: error= 8.98D-08 at cycle   4 NSaved=   4.
 NSaved= 4 IEnMin= 4 EnMin= -76.3581115502549     IErMin= 4 ErrMin= 8.98D-08
 ErrMax= 8.98D-08  0.00D+00 EMaxC= 1.00D-01 BMatC= 1.58D-13 BMatP= 3.48D-12
 IDIUse=1 WtCom= 1.00D+00 WtEn= 0.00D+00
 Coeff-Com: -0.544D-02 0.132D+00 0.230D+00 0.644D+00
 Coeff:     -0.544D-02 0.132D+00 0.230D+00 0.644D+00
 Gap=     0.339 Goal=   None    Shift=    0.000
 RMSDP=9.21D-09 MaxDP=7.79D-08 DE=-2.30D-12 OVMax= 9.16D-08

 SCF Done:  E(RB3LYP) =  -76.3581115503     A.U. after    9 cycles
            NFock=  9  Conv=0.92D-08     -V/T= 2.0066
 KE= 7.585949225147D+01 PE=-1.989733596938D+02 EE= 3.756641917437D+01
 Leave Link  502 at Mon May 27 17:25:59 2019, MaxMem=   131072000 cpu:         0.2
 (Enter /applis/g09/l601.exe)
 Copying SCF densities to generalized density rwf, IOpCl= 0 IROHF=0.

 **********************************************************************

            Population analysis using the SCF density.

 **********************************************************************

 Orbital symmetries:
       Occupied  (A1) (A1) (B2) (A1) (B1)
       Virtual   (A1) (B2) (B2) (A1) (A1) (B1) (B2) (A1) (A2) (A1)
                 (B1) (B2) (B2) (A1) (B1) (A2) (A1) (A1) (B2)
 The electronic state is 1-A1.
 Alpha  occ. eigenvalues --  -19.11743  -0.98211  -0.51810  -0.36492  -0.29176
 Alpha virt. eigenvalues --    0.04715   0.12628   0.56634   0.62243   0.91635
 Alpha virt. eigenvalues --    0.92093   1.00598   1.09179   1.34377   1.41674
 Alpha virt. eigenvalues --    1.55322   1.78467   2.22326   2.26296   2.95942
 Alpha virt. eigenvalues --    3.01312   3.19079   3.50699   3.81919
     Molecular Orbital Coefficients:
                           1         2         3         4         5
                        (A1)--O   (A1)--O   (B2)--O   (A1)--O   (B1)--O
     Eigenvalues --   -19.11743  -0.98211  -0.51810  -0.36492  -0.29176
   1 1   O  1S          0.98878   0.27640   0.00000   0.11005   0.00000
   2        2S         -0.03973   0.55059   0.00000   0.21752   0.00000
   3        3S          0.01388   0.25488   0.00000   0.36662   0.00000
   4        4PX         0.00000   0.00000   0.00000   0.00000   0.63771
   5        4PY         0.00000   0.00000   0.50512   0.00000   0.00000
   6        4PZ         0.00314  -0.12134   0.00000   0.54903   0.00000
   7        5PX         0.00000   0.00000   0.00000   0.00000   0.49035
   8        5PY         0.00000   0.00000   0.19915   0.00000   0.00000
   9        5PZ         0.00002   0.00072   0.00000   0.34624   0.00000
  10        6D 0       -0.00013   0.00263   0.00000  -0.01857   0.00000
  11        6D+1        0.00000   0.00000   0.00000   0.00000  -0.01958
  12        6D-1        0.00000   0.00000  -0.02326   0.00000   0.00000
  13        6D+2        0.00139  -0.00563   0.00000   0.00108   0.00000
  14        6D-2        0.00000   0.00000   0.00000   0.00000   0.00000
  15 2   H  1S          0.00260   0.20664   0.33019  -0.19776   0.00000
  16        2S         -0.00236   0.01416   0.10474  -0.06444   0.00000
  17        3PX         0.00000   0.00000   0.00000   0.00000   0.03053
  18        3PY        -0.00265  -0.03197  -0.01449   0.02445   0.00000
  19        3PZ         0.00208   0.01480   0.02598   0.01415   0.00000
  20 3   H  1S          0.00260   0.20664  -0.33019  -0.19776   0.00000
  21        2S         -0.00236   0.01416  -0.10474  -0.06444   0.00000
  22        3PX         0.00000   0.00000   0.00000   0.00000   0.03053
  23        3PY         0.00265   0.03197  -0.01449  -0.02445   0.00000
  24        3PZ         0.00208   0.01480  -0.02598   0.01415   0.00000
                           6         7         8         9        10
                        (A1)--V   (B2)--V   (B2)--V   (A1)--V   (A1)--V
     Eigenvalues --     0.04715   0.12628   0.56634   0.62243   0.91635
   1 1   O  1S          0.10311   0.00000   0.00000  -0.10570  -0.13415
   2        2S          0.16640   0.00000   0.00000  -0.38107  -0.56341
   3        3S          0.97796   0.00000   0.00000   0.40476   0.03352
   4        4PX         0.00000   0.00000   0.00000   0.00000   0.00000
   5        4PY         0.00000  -0.36527  -0.30118   0.00000   0.00000
   6        4PZ        -0.24011   0.00000   0.00000   0.37367  -0.78582
   7        5PX         0.00000   0.00000   0.00000   0.00000   0.00000
   8        5PY         0.00000  -0.60770  -0.39230   0.00000   0.00000
   9        5PZ        -0.33628   0.00000   0.00000   0.00258   1.16969
  10        6D 0        0.00867   0.00000   0.00000  -0.00261  -0.00689
  11        6D+1        0.00000   0.00000   0.00000   0.00000   0.00000
  12        6D-1        0.00000   0.00961  -0.10315   0.00000   0.00000
  13        6D+2       -0.00439   0.00000   0.00000  -0.09599  -0.01398
  14        6D-2        0.00000   0.00000   0.00000   0.00000   0.00000
  15 2   H  1S         -0.11130   0.09731   0.96450   0.84404   0.40429
  16        2S         -0.83303   1.31191  -0.82050  -0.62735   0.00767
  17        3PX         0.00000   0.00000   0.00000   0.00000   0.00000
  18        3PY        -0.00233   0.00020   0.04648   0.21077  -0.03343
  19        3PZ        -0.00174  -0.00412  -0.11468  -0.04282   0.13623
  20 3   H  1S         -0.11130  -0.09731  -0.96450   0.84404   0.40429
  21        2S         -0.83303  -1.31191   0.82050  -0.62735   0.00767
  22        3PX         0.00000   0.00000   0.00000   0.00000   0.00000
  23        3PY         0.00233   0.00020   0.04648  -0.21077   0.03343
  24        3PZ        -0.00174   0.00412   0.11468  -0.04282   0.13623
                          11        12        13        14        15
                        (B1)--V   (B2)--V   (A1)--V   (A2)--V   (A1)--V
     Eigenvalues --     0.92093   1.00598   1.09179   1.34377   1.41674
   1 1   O  1S          0.00000   0.00000  -0.25057   0.00000  -0.08186
   2        2S          0.00000   0.00000  -1.56768   0.00000  -0.67903
   3        3S          0.00000   0.00000   2.81509   0.00000   1.63034
   4        4PX        -0.96445   0.00000   0.00000   0.00000   0.00000
   5        4PY         0.00000  -0.76779   0.00000   0.00000   0.00000
   6        4PZ         0.00000   0.00000   0.08249   0.00000   0.08482
   7        5PX         1.02388   0.00000   0.00000   0.00000   0.00000
   8        5PY         0.00000   1.75505   0.00000   0.00000   0.00000
   9        5PZ         0.00000   0.00000  -0.60879   0.00000  -1.16323
  10        6D 0        0.00000   0.00000   0.04104   0.00000  -0.19683
  11        6D+1        0.00311   0.00000   0.00000   0.00000   0.00000
  12        6D-1        0.00000  -0.02342   0.00000   0.00000   0.00000
  13        6D+2        0.00000   0.00000   0.04736   0.00000   0.02296
  14        6D-2        0.00000   0.00000   0.00000   0.17194   0.00000
  15 2   H  1S          0.00000  -0.35812  -0.51508   0.00000  -0.71923
  16        2S          0.00000  -0.82283  -0.52648   0.00000  -0.17789
  17        3PX         0.01619   0.00000   0.00000   0.66694   0.00000
  18        3PY         0.00000   0.22856  -0.01977   0.00000   0.43112
  19        3PZ         0.00000  -0.12016  -0.29988   0.00000   0.45623
  20 3   H  1S          0.00000   0.35812  -0.51508   0.00000  -0.71923
  21        2S          0.00000   0.82283  -0.52648   0.00000  -0.17789
  22        3PX         0.01619   0.00000   0.00000  -0.66694   0.00000
  23        3PY         0.00000   0.22856   0.01977   0.00000  -0.43112
  24        3PZ         0.00000   0.12016  -0.29988   0.00000   0.45623
                          16        17        18        19        20
                        (B1)--V   (B2)--V   (B2)--V   (A1)--V   (B1)--V
     Eigenvalues --     1.55322   1.78467   2.22326   2.26296   2.95942
   1 1   O  1S          0.00000   0.00000   0.00000   0.15143   0.00000
   2        2S          0.00000   0.00000   0.00000   0.76405   0.00000
   3        3S          0.00000   0.00000   0.00000   0.69399   0.00000
   4        4PX        -0.01326   0.00000   0.00000   0.00000   0.01201
   5        4PY         0.00000  -0.02811   0.74835   0.00000   0.00000
   6        4PZ         0.00000   0.00000   0.00000  -0.58557   0.00000
   7        5PX        -0.57855   0.00000   0.00000   0.00000  -0.30359
   8        5PY         0.00000   0.84367   0.15084   0.00000   0.00000
   9        5PZ         0.00000   0.00000   0.00000  -0.21772   0.00000
  10        6D 0        0.00000   0.00000   0.00000  -0.09211   0.00000
  11        6D+1       -0.20852   0.00000   0.00000   0.00000   1.02959
  12        6D-1        0.00000   0.02641   0.17406   0.00000   0.00000
  13        6D+2        0.00000   0.00000   0.00000   0.28369   0.00000
  14        6D-2        0.00000   0.00000   0.00000   0.00000   0.00000
  15 2   H  1S          0.00000  -0.35702  -0.22150  -0.41809   0.00000
  16        2S          0.00000  -0.09380  -0.33381  -0.20285   0.00000
  17        3PX         0.73628   0.00000   0.00000   0.00000   0.41444
  18        3PY         0.00000  -0.46296   0.68179   0.72462   0.00000
  19        3PZ         0.00000  -0.66822  -0.53958  -0.49904   0.00000
  20 3   H  1S          0.00000   0.35702   0.22150  -0.41809   0.00000
  21        2S          0.00000   0.09380   0.33381  -0.20285   0.00000
  22        3PX         0.73628   0.00000   0.00000   0.00000   0.41444
  23        3PY         0.00000  -0.46296   0.68179  -0.72462   0.00000
  24        3PZ         0.00000   0.66822   0.53958  -0.49904   0.00000
                          21        22        23        24
                        (A2)--V   (A1)--V   (A1)--V   (B2)--V
     Eigenvalues --     3.01312   3.19079   3.50699   3.81919
   1 1   O  1S          0.00000   0.00223   0.07879   0.00000
   2        2S          0.00000  -0.07976   0.17579   0.00000
   3        3S          0.00000   0.55931   1.91623   0.00000
   4        4PX         0.00000   0.00000   0.00000   0.00000
   5        4PY         0.00000   0.00000   0.00000  -0.48554
   6        4PZ         0.00000  -0.02573  -0.39068   0.00000
   7        5PX         0.00000   0.00000   0.00000   0.00000
   8        5PY         0.00000   0.00000   0.00000  -1.13066
   9        5PZ         0.00000  -0.55898  -0.89118   0.00000
  10        6D 0        0.00000   1.07315   0.10562   0.00000
  11        6D+1        0.00000   0.00000   0.00000   0.00000
  12        6D-1        0.00000   0.00000   0.00000   1.33710
  13        6D+2        0.00000   0.15094  -1.15291   0.00000
  14        6D-2        1.05689   0.00000   0.00000   0.00000
  15 2   H  1S          0.00000  -0.32105  -1.15730   1.06882
  16        2S          0.00000  -0.06349  -0.23653   0.27402
  17        3PX        -0.38802   0.00000   0.00000   0.00000
  18        3PY         0.00000   0.38549   0.62087  -0.62892
  19        3PZ         0.00000   0.32137  -0.50506   0.50725
  20 3   H  1S          0.00000  -0.32105  -1.15730  -1.06882
  21        2S          0.00000  -0.06349  -0.23653  -0.27402
  22        3PX         0.38802   0.00000   0.00000   0.00000
  23        3PY         0.00000  -0.38549  -0.62087  -0.62892
  24        3PZ         0.00000   0.32137  -0.50506  -0.50725
     Density Matrix:
                           1         2         3         4         5
   1 1   O  1S          2.13238
   2        2S          0.27368   0.70408
   3        3S          0.24903   0.43906   0.39913
   4        4PX         0.00000   0.00000   0.00000   0.81335
   5        4PY         0.00000   0.00000   0.00000   0.00000   0.51029
   6        4PZ         0.05998   0.10498   0.34080   0.00000   0.00000
   7        5PX         0.00000   0.00000   0.00000   0.62540   0.00000
   8        5PY         0.00000   0.00000   0.00000   0.00000   0.20119
   9        5PZ         0.07664   0.15141   0.25424   0.00000   0.00000
  10        6D 0       -0.00289  -0.00517  -0.01228   0.00000   0.00000
  11        6D+1        0.00000   0.00000   0.00000  -0.02497   0.00000
  12        6D-1        0.00000   0.00000   0.00000   0.00000  -0.02350
  13        6D+2       -0.00013  -0.00584  -0.00204   0.00000   0.00000
  14        6D-2        0.00000   0.00000   0.00000   0.00000   0.00000
  15 2   H  1S          0.07585   0.14131  -0.03960   0.00000   0.33357
  16        2S         -0.01101  -0.01225  -0.04010   0.00000   0.10581
  17        3PX         0.00000   0.00000   0.00000   0.03894   0.00000
  18        3PY        -0.01754  -0.02436   0.00156   0.00000  -0.01464
  19        3PZ         0.01541   0.02229   0.01798   0.00000   0.02624
  20 3   H  1S          0.07585   0.14131  -0.03960   0.00000  -0.33357
  21        2S         -0.01101  -0.01225  -0.04010   0.00000  -0.10581
  22        3PX         0.00000   0.00000   0.00000   0.03894   0.00000
  23        3PY         0.01754   0.02436  -0.00156   0.00000  -0.01464
  24        3PZ         0.01541   0.02229   0.01798   0.00000  -0.02624
                           6         7         8         9        10
   6        4PZ         0.63234
   7        5PX         0.00000   0.48088
   8        5PY         0.00000   0.00000   0.07932
   9        5PZ         0.38002   0.00000   0.00000   0.23976
  10        6D 0       -0.02103   0.00000   0.00000  -0.01286   0.00070
  11        6D+1        0.00000  -0.01920   0.00000   0.00000   0.00000
  12        6D-1        0.00000   0.00000  -0.00927   0.00000   0.00000
  13        6D+2        0.00256   0.00000   0.00000   0.00074  -0.00007
  14        6D-2        0.00000   0.00000   0.00000   0.00000   0.00000
  15 2   H  1S         -0.26729   0.00000   0.13151  -0.13665   0.00843
  16        2S         -0.07421   0.00000   0.04172  -0.04460   0.00247
  17        3PX         0.00000   0.02994   0.00000   0.00000   0.00000
  18        3PY         0.03459   0.00000  -0.00577   0.01688  -0.00108
  19        3PZ         0.01196   0.00000   0.01035   0.00982  -0.00045
  20 3   H  1S         -0.26729   0.00000  -0.13151  -0.13665   0.00843
  21        2S         -0.07421   0.00000  -0.04172  -0.04460   0.00247
  22        3PX         0.00000   0.02994   0.00000   0.00000   0.00000
  23        3PY        -0.03459   0.00000  -0.00577  -0.01688   0.00108
  24        3PZ         0.01196   0.00000  -0.01035   0.00982  -0.00045
                          11        12        13        14        15
  11        6D+1        0.00077
  12        6D-1        0.00000   0.00108
  13        6D+2        0.00000   0.00000   0.00007
  14        6D-2        0.00000   0.00000   0.00000   0.00000
  15 2   H  1S          0.00000  -0.01536  -0.00274   0.00000   0.38169
  16        2S          0.00000  -0.00487  -0.00030   0.00000   0.10050
  17        3PX        -0.00120   0.00000   0.00000   0.00000   0.00000
  18        3PY         0.00000   0.00067   0.00041   0.00000  -0.03247
  19        3PZ         0.00000  -0.00121  -0.00013   0.00000   0.01769
  20 3   H  1S          0.00000   0.01536  -0.00274   0.00000  -0.05441
  21        2S          0.00000   0.00487  -0.00030   0.00000  -0.03784
  22        3PX        -0.00120   0.00000   0.00000   0.00000   0.00000
  23        3PY         0.00000   0.00067  -0.00041   0.00000   0.01333
  24        3PZ         0.00000   0.00121  -0.00013   0.00000  -0.01662
                          16        17        18        19        20
  16        2S          0.03066
  17        3PX         0.00000   0.00186
  18        3PY        -0.00708   0.00000   0.00367
  19        3PZ         0.00403   0.00000  -0.00102   0.00220
  20 3   H  1S         -0.03784   0.00000  -0.01333  -0.01662   0.38169
  21        2S         -0.01322   0.00000  -0.00101  -0.00686   0.10050
  22        3PX         0.00000   0.00186   0.00000   0.00000   0.00000
  23        3PY         0.00101   0.00000  -0.00283  -0.00049   0.03247
  24        3PZ        -0.00686   0.00000   0.00049  -0.00050   0.01769
                          21        22        23        24
  21        2S          0.03066
  22        3PX         0.00000   0.00186
  23        3PY         0.00708   0.00000   0.00367
  24        3PZ         0.00403   0.00000   0.00102   0.00220
    Full Mulliken population analysis:
                           1         2         3         4         5
   1 1   O  1S          2.13238
   2        2S         -0.09415   0.70408
   3        3S         -0.03931   0.34639   0.39913
   4        4PX         0.00000   0.00000   0.00000   0.81335
   5        4PY         0.00000   0.00000   0.00000   0.00000   0.51029
   6        4PZ         0.00000   0.00000   0.00000   0.00000   0.00000
   7        5PX         0.00000   0.00000   0.00000   0.31404   0.00000
   8        5PY         0.00000   0.00000   0.00000   0.00000   0.10102
   9        5PZ         0.00000   0.00000   0.00000   0.00000   0.00000
  10        6D 0        0.00000   0.00000   0.00000   0.00000   0.00000
  11        6D+1        0.00000   0.00000   0.00000   0.00000   0.00000
  12        6D-1        0.00000   0.00000   0.00000   0.00000   0.00000
  13        6D+2        0.00000   0.00000   0.00000   0.00000   0.00000
  14        6D-2        0.00000   0.00000   0.00000   0.00000   0.00000
  15 2   H  1S         -0.00363   0.04656  -0.02024   0.00000   0.07445
  16        2S          0.00069  -0.00480  -0.02769   0.00000   0.00889
  17        3PX         0.00000   0.00000   0.00000   0.00714   0.00000
  18        3PY        -0.00127   0.00842  -0.00041   0.00000   0.00258
  19        3PZ        -0.00086   0.00592   0.00361   0.00000   0.00725
  20 3   H  1S         -0.00363   0.04656  -0.02024   0.00000   0.07445
  21        2S          0.00069  -0.00480  -0.02769   0.00000   0.00889
  22        3PX         0.00000   0.00000   0.00000   0.00714   0.00000
  23        3PY        -0.00127   0.00842  -0.00041   0.00000   0.00258
  24        3PZ        -0.00086   0.00592   0.00361   0.00000   0.00725
                           6         7         8         9        10
   6        4PZ         0.63234
   7        5PX         0.00000   0.48088
   8        5PY         0.00000   0.00000   0.07932
   9        5PZ         0.19082   0.00000   0.00000   0.23976
  10        6D 0        0.00000   0.00000   0.00000   0.00000   0.00070
  11        6D+1        0.00000   0.00000   0.00000   0.00000   0.00000
  12        6D-1        0.00000   0.00000   0.00000   0.00000   0.00000
  13        6D+2        0.00000   0.00000   0.00000   0.00000   0.00000
  14        6D-2        0.00000   0.00000   0.00000   0.00000   0.00000
  15 2   H  1S          0.04584   0.00000   0.06490   0.05182   0.00011
  16        2S          0.00479   0.00000   0.01293   0.01062   0.00000
  17        3PX         0.00000   0.01090   0.00000   0.00000   0.00000
  18        3PY         0.00955   0.00000  -0.00032   0.00400   0.00018
  19        3PZ        -0.00035   0.00000   0.00245   0.00179   0.00009
  20 3   H  1S          0.04584   0.00000   0.06490   0.05182   0.00011
  21        2S          0.00479   0.00000   0.01293   0.01062   0.00000
  22        3PX         0.00000   0.01090   0.00000   0.00000   0.00000
  23        3PY         0.00955   0.00000  -0.00032   0.00400   0.00018
  24        3PZ        -0.00035   0.00000   0.00245   0.00179   0.00009
                          11        12        13        14        15
  11        6D+1        0.00077
  12        6D-1        0.00000   0.00108
  13        6D+2        0.00000   0.00000   0.00007
  14        6D-2        0.00000   0.00000   0.00000   0.00000
  15 2   H  1S          0.00000   0.00292   0.00034   0.00000   0.38169
  16        2S          0.00000   0.00010   0.00000   0.00000   0.06882
  17        3PX         0.00023   0.00000   0.00000   0.00000   0.00000
  18        3PY         0.00000   0.00013   0.00000   0.00000   0.00000
  19        3PZ         0.00000   0.00005   0.00002   0.00000   0.00000
  20 3   H  1S          0.00000   0.00292   0.00034   0.00000  -0.00651
  21        2S          0.00000   0.00010   0.00000   0.00000  -0.01158
  22        3PX         0.00023   0.00000   0.00000   0.00000   0.00000
  23        3PY         0.00000   0.00013   0.00000   0.00000   0.00187
  24        3PZ         0.00000   0.00005   0.00002   0.00000   0.00000
                          16        17        18        19        20
  16        2S          0.03066
  17        3PX         0.00000   0.00186
  18        3PY         0.00000   0.00000   0.00367
  19        3PZ         0.00000   0.00000   0.00000   0.00220
  20 3   H  1S         -0.01158   0.00000   0.00187   0.00000   0.38169
  21        2S         -0.00800   0.00000   0.00016   0.00000   0.06882
  22        3PX         0.00000   0.00007   0.00000   0.00000   0.00000
  23        3PY         0.00016   0.00000   0.00059   0.00000   0.00000
  24        3PZ         0.00000   0.00000   0.00000  -0.00002   0.00000
                          21        22        23        24
  21        2S          0.03066
  22        3PX         0.00000   0.00186
  23        3PY         0.00000   0.00000   0.00367
  24        3PZ         0.00000   0.00000   0.00000   0.00220
     Gross orbital populations:
                           1
   1 1   O  1S          1.98877
   2        2S          1.06853
   3        3S          0.61676
   4        4PX         1.14166
   5        4PY         0.79764
   6        4PZ         0.94282
   7        5PX         0.81672
   8        5PY         0.34025
   9        5PZ         0.56703
  10        6D 0        0.00147
  11        6D+1        0.00122
  12        6D-1        0.00748
  13        6D+2        0.00080
  14        6D-2        0.00000
  15 2   H  1S          0.69735
  16        2S          0.08559
  17        3PX         0.02020
  18        3PY         0.02914
  19        3PZ         0.02215
  20 3   H  1S          0.69735
  21        2S          0.08559
  22        3PX         0.02020
  23        3PY         0.02914
  24        3PZ         0.02215
          Condensed to atoms (all electrons):
               1          2          3
     1  O    7.631768   0.329690   0.329690
     2  H    0.329690   0.557724  -0.032989
     3  H    0.329690  -0.032989   0.557724
 Mulliken charges:
               1
     1  O   -0.291149
     2  H    0.145574
     3  H    0.145574
 Sum of Mulliken charges =   0.00000
 Mulliken charges with hydrogens summed into heavy atoms:
               1
     1  O    0.000000
 Electronic spatial extent (au):  <R**2>=             18.8902
 Charge=              0.0000 electrons
 Dipole moment (field-independent basis, Debye):
    X=              0.0000    Y=              0.0000    Z=             -1.9760  Tot=              1.9760
 Quadrupole moment (field-independent basis, Debye-Ang):
   XX=             -6.9846   YY=             -4.2913   ZZ=             -5.9755
   XY=              0.0000   XZ=              0.0000   YZ=              0.0000
 Traceless Quadrupole moment (field-independent basis, Debye-Ang):
   XX=             -1.2341   YY=              1.4592   ZZ=             -0.2250
   XY=              0.0000   XZ=              0.0000   YZ=              0.0000
 Octapole moment (field-independent basis, Debye-Ang**2):
  XXX=              0.0000  YYY=              0.0000  ZZZ=             -1.0509  XYY=              0.0000
  XXY=              0.0000  XXZ=             -0.2800  XZZ=              0.0000  YZZ=              0.0000
  YYZ=             -1.0953  XYZ=              0.0000
 Hexadecapole moment (field-independent basis, Debye-Ang**3):
 XXXX=             -4.8186 YYYY=             -6.0789 ZZZZ=             -6.0570 XXXY=              0.0000
 XXXZ=              0.0000 YYYX=              0.0000 YYYZ=              0.0000 ZZZX=              0.0000
 ZZZY=              0.0000 XXYY=             -2.0735 XXZZ=             -1.8616 YYZZ=             -1.7196
 XXYZ=              0.0000 YYXZ=              0.0000 ZZXY=              0.0000
 N-N= 9.189336717684D+00 E-N=-1.989733574338D+02  KE= 7.585949225147D+01
 Symmetry A1   KE= 6.767951387428D+01
 Symmetry A2   KE= 1.253994776718D-35
 Symmetry B1   KE= 4.627707824509D+00
 Symmetry B2   KE= 3.552270552676D+00
 Orbital energies and kinetic energies (alpha):
                                 1                 2
   1         (A1)--O         -19.117434         28.759999
   2         (A1)--O          -0.982109          2.806467
   3         (B2)--O          -0.518098          1.776135
   4         (A1)--O          -0.364917          2.273291
   5         (B1)--O          -0.291763          2.313854
   6         (A1)--V           0.047147          0.942478
   7         (B2)--V           0.126275          1.011121
   8         (B2)--V           0.566340          1.938613
   9         (A1)--V           0.622433          2.440285
  10         (A1)--V           0.916350          3.424367
  11         (B1)--V           0.920929          3.655100
  12         (B2)--V           1.005983          2.885545
  13         (A1)--V           1.091787          3.386077
  14         (A2)--V           1.343768          2.134974
  15         (A1)--V           1.416741          2.380570
  16         (B1)--V           1.553218          2.310890
  17         (B2)--V           1.784672          2.479282
  18         (B2)--V           2.223263          4.149202
  19         (A1)--V           2.262965          4.469746
  20         (B1)--V           2.959423          4.454855
  21         (A2)--V           3.013123          4.547613
  22         (A1)--V           3.190788          4.741341
  23         (A1)--V           3.506986          5.540970
  24         (B2)--V           3.819188          5.877469
 Total kinetic energy from orbitals= 7.585949225147D+01
 No NMR shielding tensors so no spin-rotation constants.
 Leave Link  601 at Mon May 27 17:26:00 2019, MaxMem=   131072000 cpu:         0.1
 (Enter /applis/g09/l701.exe)
 Compute integral first derivatives.
 ... and contract with generalized density number  0.
 Leave Link  701 at Mon May 27 17:26:00 2019, MaxMem=   131072000 cpu:         0.1
 (Enter /applis/g09/l702.exe)
 L702 exits ... SP integral derivatives will be done elsewhere.
 Leave Link  702 at Mon May 27 17:26:00 2019, MaxMem=   131072000 cpu:         0.0
 (Enter /applis/g09/l703.exe)
 Compute integral first derivatives, UseDBF=F ICtDFT=           0.
 Integral derivatives from FoFJK, PRISM(SPDF).
 Calling FoFJK, ICntrl=      2127 FMM=F ISym2X=1 I1Cent= 0 IOpClX= 0 NMat=1 NMatS=1 NMatT=0.
 FoFJK:  IHMeth= 1 ICntrl=    2127 DoSepK=F KAlg= 0 I1Cent=   0 FoldK=F
 IRaf=         0 NMat=   1 IRICut=       1 DoRegI=T DoRafI=F ISym2E= 1.
 FoFCou: FMM=F IPFlag=           0 FMFlag=      100000 FMFlg1=         800
         NFxFlg=           0 DoJE=F BraDBF=F KetDBF=F FulRan=T
         wScrn=  0.000000 ICntrl=    2127 IOpCl=  0 I1Cent=           0 NGrid=           0
         NMat0=    1 NMatS0=      1 NMatT0=    0 NMatD0=    1 NMtDS0=    0 NMtDT0=    0
 Petite list used in FoFCou.
 Leave Link  703 at Mon May 27 17:26:00 2019, MaxMem=   131072000 cpu:         0.1
 (Enter /applis/g09/l716.exe)
 Dipole        =-2.76943010D-17 0.00000000D+00-7.77405230D-01
 ***** Axes restored to original set *****
 -------------------------------------------------------------------
 Center     Atomic                   Forces (Hartrees/Bohr)
 Number     Number              X              Y              Z
 -------------------------------------------------------------------
      1        8           0.000000000    0.000000000    0.013567247
      2        1           0.000000000    0.005160347   -0.006783624
      3        1           0.000000000   -0.005160347   -0.006783624
 -------------------------------------------------------------------
 Cartesian Forces:  Max     0.013567247 RMS     0.006049460
 Leave Link  716 at Mon May 27 17:26:00 2019, MaxMem=   131072000 cpu:         0.0
 (Enter /applis/g09/l103.exe)

 GradGradGradGradGradGradGradGradGradGradGradGradGradGradGradGradGradGrad
 Berny optimization.
 FormGI is forming the generalized inverse of G from B-inverse, IUseBI=4.
 Internal  Forces:  Max     0.008225034 RMS     0.007110182
 Search for a local minimum.
 Step number   1 out of a maximum of   20
 All quantities printed in internal units (Hartrees-Bohrs-Radians)
 RMS Force = .71102D-02 SwitMx=.10000D-02 MixMth= 1
 Mixed Optimization -- RFO/linear search
 Second derivative matrix not updated -- first step.
 The second derivative matrix:
                          R1        R2        A1
           R1           0.55974
           R2           0.00000   0.55974
           A1           0.00000   0.00000   0.16000
 ITU=  0
     Eigenvalues ---    0.16000   0.55974   0.55974
 RFO step:  Lambda=-3.43616701D-04 EMin= 1.60000000D-01
 Linear search not attempted -- first point.
 Iteration  1 RMS(Cart)=  0.01288402 RMS(Int)=  0.00016588
 Iteration  2 RMS(Cart)=  0.00018781 RMS(Int)=  0.00000001
 Iteration  3 RMS(Cart)=  0.00000001 RMS(Int)=  0.00000000
 ITry= 1 IFail=0 DXMaxC= 1.81D-02 DCOld= 1.00D+10 DXMaxT= 3.00D-01 DXLimC= 3.00D+00 Rises=F
 ClnCor:  largest displacement from symmetrization is 1.29D-15 for atom     3.
 Variable       Old X    -DE/DX   Delta X   Delta X   Delta X     New X
                                 (Linear)    (Quad)   (Total)
    R1        1.80977   0.00823   0.00000   0.01469   0.01469   1.82445
    R2        1.80977   0.00823   0.00000   0.01469   0.01469   1.82445
    A1        1.83130  -0.00404   0.00000  -0.02523  -0.02523   1.80608
         Item               Value     Threshold  Converged?
 Maximum Force            0.008225     0.000450     NO 
 RMS     Force            0.007110     0.000300     NO 
 Maximum Displacement     0.018071     0.001800     NO 
 RMS     Displacement     0.012939     0.001200     NO 
 Predicted change in Energy=-1.719920D-04
 Lowest energy point so far.  Saving SCF results.
 GradGradGradGradGradGradGradGradGradGradGradGradGradGradGradGradGradGrad

 Leave Link  103 at Mon May 27 17:26:00 2019, MaxMem=   131072000 cpu:         0.0
 (Enter /applis/g09/l202.exe)
                          Input orientation:                          
 ---------------------------------------------------------------------
 Center     Atomic      Atomic             Coordinates (Angstroms)
 Number     Number       Type             X           Y           Z
 ---------------------------------------------------------------------
      1          8           0        0.000000    0.000000   -0.101441
      2          1           0        0.000000    0.758089   -0.699279
      3          1           0        0.000000   -0.758089   -0.699279
 ---------------------------------------------------------------------
                    Distance matrix (angstroms):
                    1          2          3
     1  O    0.000000
     2  H    0.965458   0.000000
     3  H    0.965458   1.516178   0.000000
 Stoichiometry    H2O
 Framework group  C2V[C2(O),SGV(H2)]
 Deg. of freedom     2
 Full point group                 C2V     NOp   4
 RotChk:  IX=0 Diff= 1.24D-15
 Largest Abelian subgroup         C2V     NOp   4
 Largest concise Abelian subgroup C2      NOp   2
                         Standard orientation:                         
 ---------------------------------------------------------------------
 Center     Atomic      Atomic             Coordinates (Angstroms)
 Number     Number       Type             X           Y           Z
 ---------------------------------------------------------------------
      1          8           0        0.000000    0.000000    0.119568
      2          1           0        0.000000    0.758089   -0.478271
      3          1           0        0.000000   -0.758089   -0.478271
 ---------------------------------------------------------------------
 Rotational constants (GHZ):    789.9146887    436.2763969    281.0501057
 Leave Link  202 at Mon May 27 17:26:00 2019, MaxMem=   131072000 cpu:         0.0
 (Enter /applis/g09/l301.exe)
 Standard basis: SVP (5D, 7F)
 Ernie: Thresh=  0.10000D-02 Tol=  0.10000D-05 Strict=F.
 There are    12 symmetry adapted cartesian basis functions of A1  symmetry.
 There are     2 symmetry adapted cartesian basis functions of A2  symmetry.
 There are     4 symmetry adapted cartesian basis functions of B1  symmetry.
 There are     7 symmetry adapted cartesian basis functions of B2  symmetry.
 There are    11 symmetry adapted basis functions of A1  symmetry.
 There are     2 symmetry adapted basis functions of A2  symmetry.
 There are     4 symmetry adapted basis functions of B1  symmetry.
 There are     7 symmetry adapted basis functions of B2  symmetry.
    24 basis functions,    39 primitive gaussians,    25 cartesian basis functions
     5 alpha electrons        5 beta electrons
       nuclear repulsion energy         9.1187800522 Hartrees.
 IExCor=  402 DFT=T Ex+Corr=B3LYP ExCW=0 ScaHFX=  0.200000
 ScaDFX=  0.800000  0.720000  1.000000  0.810000 ScalE2=  1.000000  1.000000
 IRadAn=      0 IRanWt=     -1 IRanGd=            0 ICorTp=0 IEmpDi=  4
 NAtoms=    3 NActive=    3 NUniq=    2 SFac= 2.25D+00 NAtFMM=   60 NAOKFM=F Big=F
 Integral buffers will be    131072 words long.
 Raffenetti 2 integral format.
 Two-electron integral symmetry is turned on.
 Leave Link  301 at Mon May 27 17:26:00 2019, MaxMem=   131072000 cpu:         0.0
 (Enter /applis/g09/l302.exe)
 NPDir=0 NMtPBC=     1 NCelOv=     1 NCel=       1 NClECP=     1 NCelD=      1
         NCelK=      1 NCelE2=     1 NClLst=     1 CellRange=     0.0.
 One-electron integrals computed using PRISM.
 One-electron integral symmetry used in STVInt
 NBasis=    24 RedAO= T EigKep=  5.99D-02  NBF=    11     2     4     7
 NBsUse=    24 1.00D-06 EigRej= -1.00D+00 NBFU=    11     2     4     7
 Precomputing XC quadrature grid using
 IXCGrd= 4 IRadAn=           0 IRanWt=          -1 IRanGd=           0 AccXCQ= 0.00D+00.
 Generated NRdTot=       0 NPtTot=           0 NUsed=           0 NTot=          32
 NSgBfM=    25    25    25    25    25 MxSgAt=     3 MxSgA2=     3.
 Leave Link  302 at Mon May 27 17:26:00 2019, MaxMem=   131072000 cpu:         0.1
 (Enter /applis/g09/l303.exe)
 DipDrv:  MaxL=1.
 Leave Link  303 at Mon May 27 17:26:00 2019, MaxMem=   131072000 cpu:         0.0
 (Enter /applis/g09/l401.exe)
 Initial guess from the checkpoint file:  "H2O_OPT_basis2.chk"
 B after Tr=     0.000000    0.000000    0.000000
         Rot=    1.000000    0.000000    0.000000    0.000000 Ang=   0.00 deg.
 Guess basis will be translated and rotated to current coordinates.
 JPrj=2 DoOrth=T DoCkMO=T.
 Initial guess orbital symmetries:
       Occupied  (A1) (A1) (B2) (A1) (B1)
       Virtual   (A1) (A1) (A1) (A1) (A1) (A1) (A1) (A1) (A2) (A2)
                 (B1) (B1) (B1) (B2) (B2) (B2) (B2) (B2) (B2)
 The electronic state of the initial guess is 1-A1.
 Leave Link  401 at Mon May 27 17:26:00 2019, MaxMem=   131072000 cpu:         0.0
 (Enter /applis/g09/l502.exe)
 Closed shell SCF:
 Using DIIS extrapolation, IDIIS=  1040.
 Integral symmetry usage will be decided dynamically.
 Keep R1 ints in memory in symmetry-blocked form, NReq=926891.
 IVT=       20839 IEndB=       20839 NGot=   131072000 MDV=   131037463
 LenX=   131037463 LenY=   131036397
 Requested convergence on RMS density matrix=1.00D-08 within 128 cycles.
 Requested convergence on MAX density matrix=1.00D-06.
 Requested convergence on             energy=1.00D-06.
 No special actions if energy rises.
 FoFCou: FMM=F IPFlag=           0 FMFlag=           0 FMFlg1=           0
         NFxFlg=           0 DoJE=F BraDBF=F KetDBF=F FulRan=T
         wScrn=  0.000000 ICntrl=     600 IOpCl=  0 I1Cent=           0 NGrid=           0
         NMat0=    1 NMatS0=    300 NMatT0=    0 NMatD0=    1 NMtDS0=    0 NMtDT0=    0
 Petite list used in FoFCou.

 Cycle   1  Pass 1  IDiag  1:
 E= -76.3582355901469    
 DIIS: error= 1.21D-03 at cycle   1 NSaved=   1.
 NSaved= 1 IEnMin= 1 EnMin= -76.3582355901469     IErMin= 1 ErrMin= 1.21D-03
 ErrMax= 1.21D-03  0.00D+00 EMaxC= 1.00D-01 BMatC= 6.14D-05 BMatP= 6.14D-05
 IDIUse=3 WtCom= 9.88D-01 WtEn= 1.21D-02
 Coeff-Com:  0.100D+01
 Coeff-En:   0.100D+01
 Coeff:      0.100D+01
 Gap=     0.949 Goal=   None    Shift=    0.000
 GapD=    0.949 DampG=2.000 DampE=1.000 DampFc=2.0000 IDamp=-1.
 RMSDP=5.88D-04 MaxDP=4.42D-03              OVMax= 4.35D-03

 Cycle   2  Pass 1  IDiag  1:
 E= -76.3583024860486     Delta-E=       -0.000066895902 Rises=F Damp=F
 DIIS: error= 7.89D-04 at cycle   2 NSaved=   2.
 NSaved= 2 IEnMin= 2 EnMin= -76.3583024860486     IErMin= 2 ErrMin= 7.89D-04
 ErrMax= 7.89D-04  0.00D+00 EMaxC= 1.00D-01 BMatC= 1.01D-05 BMatP= 6.14D-05
 IDIUse=3 WtCom= 9.92D-01 WtEn= 7.89D-03
 Coeff-Com:  0.179D+00 0.821D+00
 Coeff-En:   0.000D+00 0.100D+01
 Coeff:      0.178D+00 0.822D+00
 Gap=     0.338 Goal=   None    Shift=    0.000
 RMSDP=1.46D-04 MaxDP=1.36D-03 DE=-6.69D-05 OVMax= 1.31D-03

 Cycle   3  Pass 1  IDiag  1:
 E= -76.3583036923215     Delta-E=       -0.000001206273 Rises=F Damp=F
 DIIS: error= 6.82D-04 at cycle   3 NSaved=   3.
 NSaved= 3 IEnMin= 3 EnMin= -76.3583036923215     IErMin= 3 ErrMin= 6.82D-04
 ErrMax= 6.82D-04  0.00D+00 EMaxC= 1.00D-01 BMatC= 8.34D-06 BMatP= 1.01D-05
 IDIUse=3 WtCom= 9.93D-01 WtEn= 6.82D-03
 Coeff-Com: -0.756D-02 0.477D+00 0.531D+00
 Coeff-En:   0.000D+00 0.458D+00 0.542D+00
 Coeff:     -0.750D-02 0.477D+00 0.531D+00
 Gap=     0.337 Goal=   None    Shift=    0.000
 RMSDP=8.02D-05 MaxDP=6.76D-04 DE=-1.21D-06 OVMax= 7.53D-04

 Cycle   4  Pass 1  IDiag  1:
 E= -76.3583096457005     Delta-E=       -0.000005953379 Rises=F Damp=F
 DIIS: error= 4.72D-05 at cycle   4 NSaved=   4.
 NSaved= 4 IEnMin= 4 EnMin= -76.3583096457005     IErMin= 4 ErrMin= 4.72D-05
 ErrMax= 4.72D-05  0.00D+00 EMaxC= 1.00D-01 BMatC= 5.13D-08 BMatP= 8.34D-06
 IDIUse=1 WtCom= 1.00D+00 WtEn= 0.00D+00
 Coeff-Com: -0.755D-02 0.991D-01 0.150D+00 0.758D+00
 Coeff:     -0.755D-02 0.991D-01 0.150D+00 0.758D+00
 Gap=     0.337 Goal=   None    Shift=    0.000
 RMSDP=5.43D-06 MaxDP=4.07D-05 DE=-5.95D-06 OVMax= 6.67D-05

 Cycle   5  Pass 1  IDiag  1:
 E= -76.3583096818094     Delta-E=       -0.000000036109 Rises=F Damp=F
 DIIS: error= 1.91D-06 at cycle   5 NSaved=   5.
 NSaved= 5 IEnMin= 5 EnMin= -76.3583096818094     IErMin= 5 ErrMin= 1.91D-06
 ErrMax= 1.91D-06  0.00D+00 EMaxC= 1.00D-01 BMatC= 9.31D-11 BMatP= 5.13D-08
 IDIUse=1 WtCom= 1.00D+00 WtEn= 0.00D+00
 Coeff-Com:  0.118D-03-0.737D-02-0.634D-02-0.108D-02 0.101D+01
 Coeff:      0.118D-03-0.737D-02-0.634D-02-0.108D-02 0.101D+01
 Gap=     0.337 Goal=   None    Shift=    0.000
 RMSDP=5.83D-07 MaxDP=4.27D-06 DE=-3.61D-08 OVMax= 7.14D-06

 Cycle   6  Pass 1  IDiag  1:
 E= -76.3583096819230     Delta-E=       -0.000000000114 Rises=F Damp=F
 DIIS: error= 1.79D-07 at cycle   6 NSaved=   6.
 NSaved= 6 IEnMin= 6 EnMin= -76.3583096819230     IErMin= 6 ErrMin= 1.79D-07
 ErrMax= 1.79D-07  0.00D+00 EMaxC= 1.00D-01 BMatC= 4.93D-13 BMatP= 9.31D-11
 IDIUse=1 WtCom= 1.00D+00 WtEn= 0.00D+00
 Coeff-Com:  0.332D-04-0.438D-03-0.454D-03-0.240D-02-0.811D-02 0.101D+01
 Coeff:      0.332D-04-0.438D-03-0.454D-03-0.240D-02-0.811D-02 0.101D+01
 Gap=     0.337 Goal=   None    Shift=    0.000
 RMSDP=5.07D-08 MaxDP=2.82D-07 DE=-1.14D-10 OVMax= 6.78D-07

 Cycle   7  Pass 1  IDiag  1:
 E= -76.3583096819239     Delta-E=       -0.000000000001 Rises=F Damp=F
 DIIS: error= 2.90D-08 at cycle   7 NSaved=   7.
 NSaved= 7 IEnMin= 7 EnMin= -76.3583096819239     IErMin= 7 ErrMin= 2.90D-08
 ErrMax= 2.90D-08  0.00D+00 EMaxC= 1.00D-01 BMatC= 8.10D-15 BMatP= 4.93D-13
 IDIUse=1 WtCom= 1.00D+00 WtEn= 0.00D+00
 Coeff-Com: -0.781D-06 0.565D-04 0.564D-04-0.206D-03-0.833D-02-0.301D-01
 Coeff-Com:  0.104D+01
 Coeff:     -0.781D-06 0.565D-04 0.564D-04-0.206D-03-0.833D-02-0.301D-01
 Coeff:      0.104D+01
 Gap=     0.337 Goal=   None    Shift=    0.000
 RMSDP=5.15D-09 MaxDP=3.97D-08 DE=-8.53D-13 OVMax= 5.72D-08

 SCF Done:  E(RB3LYP) =  -76.3583096819     A.U. after    7 cycles
            NFock=  7  Conv=0.51D-08     -V/T= 2.0068
 KE= 7.583895970823D+01 PE=-1.988229788788D+02 EE= 3.750692943640D+01
 Leave Link  502 at Mon May 27 17:26:00 2019, MaxMem=   131072000 cpu:         0.3
 (Enter /applis/g09/l701.exe)
 Compute integral first derivatives.
 ... and contract with generalized density number  0.
 Leave Link  701 at Mon May 27 17:26:00 2019, MaxMem=   131072000 cpu:         0.1
 (Enter /applis/g09/l702.exe)
 L702 exits ... SP integral derivatives will be done elsewhere.
 Leave Link  702 at Mon May 27 17:26:00 2019, MaxMem=   131072000 cpu:         0.0
 (Enter /applis/g09/l703.exe)
 Compute integral first derivatives, UseDBF=F ICtDFT=           0.
 Integral derivatives from FoFJK, PRISM(SPDF).
 Calling FoFJK, ICntrl=      2127 FMM=F ISym2X=1 I1Cent= 0 IOpClX= 0 NMat=1 NMatS=1 NMatT=0.
 FoFJK:  IHMeth= 1 ICntrl=    2127 DoSepK=F KAlg= 0 I1Cent=   0 FoldK=F
 IRaf=         0 NMat=   1 IRICut=       1 DoRegI=T DoRafI=F ISym2E= 1.
 FoFCou: FMM=F IPFlag=           0 FMFlag=      100000 FMFlg1=         800
         NFxFlg=           0 DoJE=F BraDBF=F KetDBF=F FulRan=T
         wScrn=  0.000000 ICntrl=    2127 IOpCl=  0 I1Cent=           0 NGrid=           0
         NMat0=    1 NMatS0=      1 NMatT0=    0 NMatD0=    1 NMtDS0=    0 NMtDT0=    0
 Petite list used in FoFCou.
 Leave Link  703 at Mon May 27 17:26:01 2019, MaxMem=   131072000 cpu:         0.1
 (Enter /applis/g09/l716.exe)
 Dipole        =-2.78873122D-17 0.00000000D+00-7.86430309D-01
 ***** Axes restored to original set *****
 -------------------------------------------------------------------
 Center     Atomic                   Forces (Hartrees/Bohr)
 Number     Number              X              Y              Z
 -------------------------------------------------------------------
      1        8           0.000000000    0.000000000    0.002097689
      2        1           0.000000000    0.000494563   -0.001048844
      3        1           0.000000000   -0.000494563   -0.001048844
 -------------------------------------------------------------------
 Cartesian Forces:  Max     0.002097689 RMS     0.000887545
 Leave Link  716 at Mon May 27 17:26:01 2019, MaxMem=   131072000 cpu:         0.0
 (Enter /applis/g09/l103.exe)

 GradGradGradGradGradGradGradGradGradGradGradGradGradGradGradGradGradGrad
 Berny optimization.
 Using GEDIIS/GDIIS optimizer.
 FormGI is forming the generalized inverse of G from B-inverse, IUseBI=4.
 Internal  Forces:  Max     0.001037810 RMS     0.001007455
 Search for a local minimum.
 Step number   2 out of a maximum of   20
 All quantities printed in internal units (Hartrees-Bohrs-Radians)
 RMS Force = .10075D-02 SwitMx=.10000D-02 MixMth= 1
 Mixed Optimization -- RFO/linear search
 Update second derivatives using D2CorX and points    1    2
 DE= -1.98D-04 DEPred=-1.72D-04 R= 1.15D+00
 TightC=F SS=  1.41D+00  RLast= 3.27D-02 DXNew= 5.0454D-01 9.8028D-02
 Trust test= 1.15D+00 RLast= 3.27D-02 DXMaxT set to 3.00D-01
 The second derivative matrix:
                          R1        R2        A1
           R1           0.54143
           R2          -0.01831   0.54143
           A1           0.01962   0.01962   0.14578
 ITU=  1  0
 Use linear search instead of GDIIS.
     Eigenvalues ---    0.14375   0.52515   0.55974
 RFO step:  Lambda=-1.25882284D-06 EMin= 1.43746624D-01
 Quartic linear search produced a step of  0.19152.
 Iteration  1 RMS(Cart)=  0.00364916 RMS(Int)=  0.00001116
 Iteration  2 RMS(Cart)=  0.00001194 RMS(Int)=  0.00000000
 Iteration  3 RMS(Cart)=  0.00000000 RMS(Int)=  0.00000000
 ITry= 1 IFail=0 DXMaxC= 4.42D-03 DCOld= 1.00D+10 DXMaxT= 3.00D-01 DXLimC= 3.00D+00 Rises=F
 ClnCor:  largest displacement from symmetrization is 2.22D-16 for atom     3.
 Variable       Old X    -DE/DX   Delta X   Delta X   Delta X     New X
                                 (Linear)    (Quad)   (Total)
    R1        1.82445   0.00104   0.00281  -0.00053   0.00229   1.82674
    R2        1.82445   0.00104   0.00281  -0.00053   0.00229   1.82674
    A1        1.80608  -0.00094  -0.00483  -0.00244  -0.00727   1.79880
         Item               Value     Threshold  Converged?
 Maximum Force            0.001038     0.000450     NO 
 RMS     Force            0.001007     0.000300     NO 
 Maximum Displacement     0.004416     0.001800     NO 
 RMS     Displacement     0.003655     0.001200     NO 
 Predicted change in Energy=-5.672554D-06
 Lowest energy point so far.  Saving SCF results.
 GradGradGradGradGradGradGradGradGradGradGradGradGradGradGradGradGradGrad

 Leave Link  103 at Mon May 27 17:26:01 2019, MaxMem=   131072000 cpu:         0.0
 (Enter /applis/g09/l202.exe)
                          Input orientation:                          
 ---------------------------------------------------------------------
 Center     Atomic      Atomic             Coordinates (Angstroms)
 Number     Number       Type             X           Y           Z
 ---------------------------------------------------------------------
      1          8           0        0.000000    0.000000   -0.099105
      2          1           0        0.000000    0.756858   -0.700448
      3          1           0        0.000000   -0.756858   -0.700448
 ---------------------------------------------------------------------
                    Distance matrix (angstroms):
                    1          2          3
     1  O    0.000000
     2  H    0.966668   0.000000
     3  H    0.966668   1.513715   0.000000
 Stoichiometry    H2O
 Framework group  C2V[C2(O),SGV(H2)]
 Deg. of freedom     2
 Full point group                 C2V     NOp   4
 RotChk:  IX=0 Diff= 3.86D-16
 Largest Abelian subgroup         C2V     NOp   4
 Largest concise Abelian subgroup C2      NOp   2
                         Standard orientation:                         
 ---------------------------------------------------------------------
 Center     Atomic      Atomic             Coordinates (Angstroms)
 Number     Number       Type             X           Y           Z
 ---------------------------------------------------------------------
      1          8           0        0.000000    0.000000    0.120269
      2          1           0        0.000000    0.756858   -0.481074
      3          1           0        0.000000   -0.756858   -0.481074
 ---------------------------------------------------------------------
 Rotational constants (GHZ):    780.7335639    437.6972435    280.4631390
 Leave Link  202 at Mon May 27 17:26:01 2019, MaxMem=   131072000 cpu:         0.0
 (Enter /applis/g09/l301.exe)
 Standard basis: SVP (5D, 7F)
 Ernie: Thresh=  0.10000D-02 Tol=  0.10000D-05 Strict=F.
 There are    12 symmetry adapted cartesian basis functions of A1  symmetry.
 There are     2 symmetry adapted cartesian basis functions of A2  symmetry.
 There are     4 symmetry adapted cartesian basis functions of B1  symmetry.
 There are     7 symmetry adapted cartesian basis functions of B2  symmetry.
 There are    11 symmetry adapted basis functions of A1  symmetry.
 There are     2 symmetry adapted basis functions of A2  symmetry.
 There are     4 symmetry adapted basis functions of B1  symmetry.
 There are     7 symmetry adapted basis functions of B2  symmetry.
    24 basis functions,    39 primitive gaussians,    25 cartesian basis functions
     5 alpha electrons        5 beta electrons
       nuclear repulsion energy         9.1083727013 Hartrees.
 IExCor=  402 DFT=T Ex+Corr=B3LYP ExCW=0 ScaHFX=  0.200000
 ScaDFX=  0.800000  0.720000  1.000000  0.810000 ScalE2=  1.000000  1.000000
 IRadAn=      0 IRanWt=     -1 IRanGd=            0 ICorTp=0 IEmpDi=  4
 NAtoms=    3 NActive=    3 NUniq=    2 SFac= 2.25D+00 NAtFMM=   60 NAOKFM=F Big=F
 Integral buffers will be    131072 words long.
 Raffenetti 2 integral format.
 Two-electron integral symmetry is turned on.
 Leave Link  301 at Mon May 27 17:26:01 2019, MaxMem=   131072000 cpu:         0.0
 (Enter /applis/g09/l302.exe)
 NPDir=0 NMtPBC=     1 NCelOv=     1 NCel=       1 NClECP=     1 NCelD=      1
         NCelK=      1 NCelE2=     1 NClLst=     1 CellRange=     0.0.
 One-electron integrals computed using PRISM.
 One-electron integral symmetry used in STVInt
 NBasis=    24 RedAO= T EigKep=  5.99D-02  NBF=    11     2     4     7
 NBsUse=    24 1.00D-06 EigRej= -1.00D+00 NBFU=    11     2     4     7
 Precomputing XC quadrature grid using
 IXCGrd= 4 IRadAn=           0 IRanWt=          -1 IRanGd=           0 AccXCQ= 0.00D+00.
 Generated NRdTot=       0 NPtTot=           0 NUsed=           0 NTot=          32
 NSgBfM=    25    25    25    25    25 MxSgAt=     3 MxSgA2=     3.
 Leave Link  302 at Mon May 27 17:26:01 2019, MaxMem=   131072000 cpu:         0.1
 (Enter /applis/g09/l303.exe)
 DipDrv:  MaxL=1.
 Leave Link  303 at Mon May 27 17:26:01 2019, MaxMem=   131072000 cpu:         0.0
 (Enter /applis/g09/l401.exe)
 Initial guess from the checkpoint file:  "H2O_OPT_basis2.chk"
 B after Tr=     0.000000    0.000000    0.000000
         Rot=    1.000000    0.000000    0.000000    0.000000 Ang=   0.00 deg.
 Guess basis will be translated and rotated to current coordinates.
 JPrj=2 DoOrth=T DoCkMO=T.
 Initial guess orbital symmetries:
       Occupied  (A1) (A1) (B2) (A1) (B1)
       Virtual   (A1) (A1) (A1) (A1) (A1) (A1) (A1) (A1) (A2) (A2)
                 (B1) (B1) (B1) (B2) (B2) (B2) (B2) (B2) (B2)
 The electronic state of the initial guess is 1-A1.
 Leave Link  401 at Mon May 27 17:26:01 2019, MaxMem=   131072000 cpu:         0.1
 (Enter /applis/g09/l502.exe)
 Closed shell SCF:
 Using DIIS extrapolation, IDIIS=  1040.
 Integral symmetry usage will be decided dynamically.
 Keep R1 ints in memory in symmetry-blocked form, NReq=926891.
 IVT=       20839 IEndB=       20839 NGot=   131072000 MDV=   131037463
 LenX=   131037463 LenY=   131036397
 Requested convergence on RMS density matrix=1.00D-08 within 128 cycles.
 Requested convergence on MAX density matrix=1.00D-06.
 Requested convergence on             energy=1.00D-06.
 No special actions if energy rises.
 FoFCou: FMM=F IPFlag=           0 FMFlag=           0 FMFlg1=           0
         NFxFlg=           0 DoJE=F BraDBF=F KetDBF=F FulRan=T
         wScrn=  0.000000 ICntrl=     600 IOpCl=  0 I1Cent=           0 NGrid=           0
         NMat0=    1 NMatS0=    300 NMatT0=    0 NMatD0=    1 NMtDS0=    0 NMtDT0=    0
 Petite list used in FoFCou.

 Cycle   1  Pass 1  IDiag  1:
 E= -76.3583114075386    
 DIIS: error= 3.03D-04 at cycle   1 NSaved=   1.
 NSaved= 1 IEnMin= 1 EnMin= -76.3583114075386     IErMin= 1 ErrMin= 3.03D-04
 ErrMax= 3.03D-04  0.00D+00 EMaxC= 1.00D-01 BMatC= 3.12D-06 BMatP= 3.12D-06
 IDIUse=3 WtCom= 9.97D-01 WtEn= 3.03D-03
 Coeff-Com:  0.100D+01
 Coeff-En:   0.100D+01
 Coeff:      0.100D+01
 Gap=     0.950 Goal=   None    Shift=    0.000
 RMSDP=1.39D-04 MaxDP=1.01D-03              OVMax= 9.47D-04

 Cycle   2  Pass 1  IDiag  1:
 E= -76.3583150712949     Delta-E=       -0.000003663756 Rises=F Damp=F
 DIIS: error= 1.39D-04 at cycle   2 NSaved=   2.
 NSaved= 2 IEnMin= 2 EnMin= -76.3583150712949     IErMin= 2 ErrMin= 1.39D-04
 ErrMax= 1.39D-04  0.00D+00 EMaxC= 1.00D-01 BMatC= 3.18D-07 BMatP= 3.12D-06
 IDIUse=3 WtCom= 9.99D-01 WtEn= 1.39D-03
 Coeff-Com:  0.106D+00 0.894D+00
 Coeff-En:   0.000D+00 0.100D+01
 Coeff:      0.106D+00 0.894D+00
 Gap=     0.337 Goal=   None    Shift=    0.000
 RMSDP=2.79D-05 MaxDP=2.60D-04 DE=-3.66D-06 OVMax= 2.46D-04

 Cycle   3  Pass 1  IDiag  1:
 E= -76.3583150430240     Delta-E=        0.000000028271 Rises=F Damp=F
 DIIS: error= 1.42D-04 at cycle   3 NSaved=   3.
 NSaved= 3 IEnMin= 2 EnMin= -76.3583150712949     IErMin= 2 ErrMin= 1.39D-04
 ErrMax= 1.42D-04  0.00D+00 EMaxC= 1.00D-01 BMatC= 3.58D-07 BMatP= 3.18D-07
 IDIUse=3 WtCom= 4.57D-01 WtEn= 5.43D-01
 Coeff-Com: -0.167D-01 0.521D+00 0.496D+00
 Coeff-En:   0.000D+00 0.527D+00 0.473D+00
 Coeff:     -0.760D-02 0.524D+00 0.484D+00
 Gap=     0.336 Goal=   None    Shift=    0.000
 RMSDP=1.62D-05 MaxDP=1.35D-04 DE= 2.83D-08 OVMax= 1.52D-04

 Cycle   4  Pass 1  IDiag  1:
 E= -76.3583152982428     Delta-E=       -0.000000255219 Rises=F Damp=F
 DIIS: error= 8.08D-06 at cycle   4 NSaved=   4.
 NSaved= 4 IEnMin= 4 EnMin= -76.3583152982428     IErMin= 4 ErrMin= 8.08D-06
 ErrMax= 8.08D-06  0.00D+00 EMaxC= 1.00D-01 BMatC= 1.28D-09 BMatP= 3.18D-07
 IDIUse=1 WtCom= 1.00D+00 WtEn= 0.00D+00
 Coeff-Com: -0.700D-02 0.105D+00 0.125D+00 0.777D+00
 Coeff:     -0.700D-02 0.105D+00 0.125D+00 0.777D+00
 Gap=     0.336 Goal=   None    Shift=    0.000
 RMSDP=8.77D-07 MaxDP=6.52D-06 DE=-2.55D-07 OVMax= 1.10D-05

 Cycle   5  Pass 1  IDiag  1:
 E= -76.3583152991513     Delta-E=       -0.000000000908 Rises=F Damp=F
 DIIS: error= 4.27D-07 at cycle   5 NSaved=   5.
 NSaved= 5 IEnMin= 5 EnMin= -76.3583152991513     IErMin= 5 ErrMin= 4.27D-07
 ErrMax= 4.27D-07  0.00D+00 EMaxC= 1.00D-01 BMatC= 5.06D-12 BMatP= 1.28D-09
 IDIUse=1 WtCom= 1.00D+00 WtEn= 0.00D+00
 Coeff-Com:  0.109D-03-0.733D-02-0.420D-02 0.211D-01 0.990D+00
 Coeff:      0.109D-03-0.733D-02-0.420D-02 0.211D-01 0.990D+00
 Gap=     0.336 Goal=   None    Shift=    0.000
 RMSDP=1.13D-07 MaxDP=7.97D-07 DE=-9.08D-10 OVMax= 1.32D-06

 Cycle   6  Pass 1  IDiag  1:
 E= -76.3583152991564     Delta-E=       -0.000000000005 Rises=F Damp=F
 DIIS: error= 3.39D-08 at cycle   6 NSaved=   6.
 NSaved= 6 IEnMin= 6 EnMin= -76.3583152991564     IErMin= 6 ErrMin= 3.39D-08
 ErrMax= 3.39D-08  0.00D+00 EMaxC= 1.00D-01 BMatC= 1.80D-14 BMatP= 5.06D-12
 IDIUse=1 WtCom= 1.00D+00 WtEn= 0.00D+00
 Coeff-Com:  0.302D-04-0.365D-03-0.344D-03-0.323D-02-0.235D-01 0.103D+01
 Coeff:      0.302D-04-0.365D-03-0.344D-03-0.323D-02-0.235D-01 0.103D+01
 Gap=     0.336 Goal=   None    Shift=    0.000
 RMSDP=1.04D-08 MaxDP=6.17D-08 DE=-5.12D-12 OVMax= 1.46D-07

 Cycle   7  Pass 1  IDiag  1:
 E= -76.3583152991564     Delta-E=        0.000000000000 Rises=F Damp=F
 DIIS: error= 5.55D-09 at cycle   7 NSaved=   7.
 NSaved= 7 IEnMin= 7 EnMin= -76.3583152991564     IErMin= 7 ErrMin= 5.55D-09
 ErrMax= 5.55D-09  0.00D+00 EMaxC= 1.00D-01 BMatC= 2.99D-16 BMatP= 1.80D-14
 IDIUse=1 WtCom= 1.00D+00 WtEn= 0.00D+00
 Coeff-Com: -0.531D-06 0.441D-04 0.372D-04-0.319D-03-0.596D-02-0.369D-01
 Coeff-Com:  0.104D+01
 Coeff:     -0.531D-06 0.441D-04 0.372D-04-0.319D-03-0.596D-02-0.369D-01
 Coeff:      0.104D+01
 Gap=     0.336 Goal=   None    Shift=    0.000
 RMSDP=9.73D-10 MaxDP=7.46D-09 DE=-2.84D-14 OVMax= 1.09D-08

 SCF Done:  E(RB3LYP) =  -76.3583152992     A.U. after    7 cycles
            NFock=  7  Conv=0.97D-09     -V/T= 2.0069
 KE= 7.583633330556D+01 PE=-1.988004508376D+02 EE= 3.749742953155D+01
 Leave Link  502 at Mon May 27 17:26:01 2019, MaxMem=   131072000 cpu:         0.3
 (Enter /applis/g09/l701.exe)
 Compute integral first derivatives.
 ... and contract with generalized density number  0.
 Leave Link  701 at Mon May 27 17:26:01 2019, MaxMem=   131072000 cpu:         0.1
 (Enter /applis/g09/l702.exe)
 L702 exits ... SP integral derivatives will be done elsewhere.
 Leave Link  702 at Mon May 27 17:26:01 2019, MaxMem=   131072000 cpu:         0.0
 (Enter /applis/g09/l703.exe)
 Compute integral first derivatives, UseDBF=F ICtDFT=           0.
 Integral derivatives from FoFJK, PRISM(SPDF).
 Calling FoFJK, ICntrl=      2127 FMM=F ISym2X=1 I1Cent= 0 IOpClX= 0 NMat=1 NMatS=1 NMatT=0.
 FoFJK:  IHMeth= 1 ICntrl=    2127 DoSepK=F KAlg= 0 I1Cent=   0 FoldK=F
 IRaf=         0 NMat=   1 IRICut=       1 DoRegI=T DoRafI=F ISym2E= 1.
 FoFCou: FMM=F IPFlag=           0 FMFlag=      100000 FMFlg1=         800
         NFxFlg=           0 DoJE=F BraDBF=F KetDBF=F FulRan=T
         wScrn=  0.000000 ICntrl=    2127 IOpCl=  0 I1Cent=           0 NGrid=           0
         NMat0=    1 NMatS0=      1 NMatT0=    0 NMatD0=    1 NMtDS0=    0 NMtDT0=    0
 Petite list used in FoFCou.
 Leave Link  703 at Mon May 27 17:26:01 2019, MaxMem=   131072000 cpu:         0.1
 (Enter /applis/g09/l716.exe)
 Dipole        =-2.78440032D-17 0.00000000D+00-7.88792247D-01
 ***** Axes restored to original set *****
 -------------------------------------------------------------------
 Center     Atomic                   Forces (Hartrees/Bohr)
 Number     Number              X              Y              Z
 -------------------------------------------------------------------
      1        8           0.000000000    0.000000000   -0.000001026
      2        1           0.000000000    0.000078887    0.000000513
      3        1           0.000000000   -0.000078887    0.000000513
 -------------------------------------------------------------------
 Cartesian Forces:  Max     0.000078887 RMS     0.000037190
 Leave Link  716 at Mon May 27 17:26:01 2019, MaxMem=   131072000 cpu:         0.0
 (Enter /applis/g09/l103.exe)

 GradGradGradGradGradGradGradGradGradGradGradGradGradGradGradGradGradGrad
 Berny optimization.
 Using GEDIIS/GDIIS optimizer.
 FormGI is forming the generalized inverse of G from B-inverse, IUseBI=4.
 Internal  Forces:  Max     0.000090379 RMS     0.000072387
 Search for a local minimum.
 Step number   3 out of a maximum of   20
 All quantities printed in internal units (Hartrees-Bohrs-Radians)
 RMS Force = .72387D-04 SwitMx=.10000D-02 MixMth= 2
 Mixed Optimization -- En-DIIS/RFO-DIIS
 Update second derivatives using D2CorX and points    1    2    3
 DE= -5.62D-06 DEPred=-5.67D-06 R= 9.90D-01
 TightC=F SS=  1.41D+00  RLast= 7.96D-03 DXNew= 5.0454D-01 2.3874D-02
 Trust test= 9.90D-01 RLast= 7.96D-03 DXMaxT set to 3.00D-01
 The second derivative matrix:
                          R1        R2        A1
           R1           0.52659
           R2          -0.03315   0.52659
           A1           0.02086   0.02086   0.15534
 ITU=  1  1  0
 Use linear search instead of GDIIS.
     Eigenvalues ---    0.15279   0.49600   0.55974
 RFO step:  Lambda=-5.07265250D-08 EMin= 1.52786535D-01
 Quartic linear search produced a step of -0.03138.
 Iteration  1 RMS(Cart)=  0.00035824 RMS(Int)=  0.00000006
 Iteration  2 RMS(Cart)=  0.00000004 RMS(Int)=  0.00000000
 ITry= 1 IFail=0 DXMaxC= 3.94D-04 DCOld= 1.00D+10 DXMaxT= 3.00D-01 DXLimC= 3.00D+00 Rises=F
 ClnCor:  largest displacement from symmetrization is 4.97D-16 for atom     3.
 Variable       Old X    -DE/DX   Delta X   Delta X   Delta X     New X
                                 (Linear)    (Quad)   (Total)
    R1        1.82674   0.00006  -0.00007   0.00017   0.00010   1.82684
    R2        1.82674   0.00006  -0.00007   0.00017   0.00010   1.82684
    A1        1.79880   0.00009   0.00023   0.00033   0.00055   1.79936
         Item               Value     Threshold  Converged?
 Maximum Force            0.000090     0.000450     YES
 RMS     Force            0.000072     0.000300     YES
 Maximum Displacement     0.000394     0.001800     YES
 RMS     Displacement     0.000358     0.001200     YES
 Predicted change in Energy=-3.127507D-08
 Optimization completed.
    -- Stationary point found.
                           ----------------------------
                           !   Optimized Parameters   !
                           ! (Angstroms and Degrees)  !
 --------------------------                            --------------------------
 ! Name  Definition              Value          Derivative Info.                !
 --------------------------------------------------------------------------------
 ! R1    R(1,2)                  0.9667         -DE/DX =    0.0001              !
 ! R2    R(1,3)                  0.9667         -DE/DX =    0.0001              !
 ! A1    A(2,1,3)              103.0639         -DE/DX =    0.0001              !
 --------------------------------------------------------------------------------
 Lowest energy point so far.  Saving SCF results.
 GradGradGradGradGradGradGradGradGradGradGradGradGradGradGradGradGradGrad

 Largest change from initial coordinates is atom    2       0.015 Angstoms.
 Leave Link  103 at Mon May 27 17:26:01 2019, MaxMem=   131072000 cpu:         0.0
 (Enter /applis/g09/l202.exe)
                          Input orientation:                          
 ---------------------------------------------------------------------
 Center     Atomic      Atomic             Coordinates (Angstroms)
 Number     Number       Type             X           Y           Z
 ---------------------------------------------------------------------
      1          8           0        0.000000    0.000000   -0.099105
      2          1           0        0.000000    0.756858   -0.700448
      3          1           0        0.000000   -0.756858   -0.700448
[...]
   9        5PZ         0.00000   0.00000  -0.63339   0.00000  -1.19328
  10        6D 0        0.00000   0.00000   0.04383   0.00000  -0.19381
  11        6D+1        0.00266   0.00000   0.00000   0.00000   0.00000
  12        6D-1        0.00000  -0.02176   0.00000   0.00000   0.00000
  13        6D+2        0.00000   0.00000   0.05339   0.00000   0.01966
  14        6D-2        0.00000   0.00000   0.00000   0.17347   0.00000
  15 2   H  1S          0.00000  -0.34400  -0.52473   0.00000  -0.73589
  16        2S          0.00000  -0.81384  -0.50656   0.00000  -0.18379
  17        3PX         0.02229   0.00000   0.00000   0.66800   0.00000
  18        3PY         0.00000   0.22179  -0.03831   0.00000   0.44497
  19        3PZ         0.00000  -0.12457  -0.30980   0.00000   0.42908
  20 3   H  1S          0.00000   0.34400  -0.52473   0.00000  -0.73589
  21        2S          0.00000   0.81384  -0.50656   0.00000  -0.18379
  22        3PX         0.02229   0.00000   0.00000  -0.66800   0.00000
  23        3PY         0.00000   0.22179   0.03831   0.00000  -0.44497
  24        3PZ         0.00000   0.12457  -0.30980   0.00000   0.42908
                          16        17        18        19        20
                        (B1)--V   (B2)--V   (B2)--V   (A1)--V   (B1)--V
     Eigenvalues --     1.54203   1.78687   2.19880   2.24605   2.96066
   1 1   O  1S          0.00000   0.00000   0.00000   0.14924   0.00000
   2        2S          0.00000   0.00000   0.00000   0.72985   0.00000
   3        3S          0.00000   0.00000   0.00000   0.70331   0.00000
   4        4PX         0.00009   0.00000   0.00000   0.00000   0.01644
   5        4PY         0.00000  -0.00808   0.72716   0.00000   0.00000
   6        4PZ         0.00000   0.00000   0.00000  -0.58752   0.00000
   7        5PX        -0.58023   0.00000   0.00000   0.00000  -0.30054
   8        5PY         0.00000   0.81136   0.12646   0.00000   0.00000
   9        5PZ         0.00000   0.00000   0.00000  -0.22012   0.00000
  10        6D 0        0.00000   0.00000   0.00000  -0.08507   0.00000
  11        6D+1       -0.20887   0.00000   0.00000   0.00000   1.02905
  12        6D-1        0.00000   0.02969   0.16937   0.00000   0.00000
  13        6D+2        0.00000   0.00000   0.00000   0.27893   0.00000
  14        6D-2        0.00000   0.00000   0.00000   0.00000   0.00000
  15 2   H  1S          0.00000  -0.33775  -0.19776  -0.40646   0.00000
  16        2S          0.00000  -0.09211  -0.33667  -0.20602   0.00000
  17        3PX         0.73268   0.00000   0.00000   0.00000   0.41154
  18        3PY         0.00000  -0.45528   0.68679   0.70863   0.00000
  19        3PZ         0.00000  -0.67620  -0.52192  -0.51597   0.00000
  20 3   H  1S          0.00000   0.33775   0.19776  -0.40646   0.00000
  21        2S          0.00000   0.09211   0.33667  -0.20602   0.00000
  22        3PX         0.73268   0.00000   0.00000   0.00000   0.41154
  23        3PY         0.00000  -0.45528   0.68679  -0.70863   0.00000
  24        3PZ         0.00000   0.67620   0.52192  -0.51597   0.00000
                          21        22        23        24
                        (A2)--V   (A1)--V   (A1)--V   (B2)--V
     Eigenvalues --     2.99658   3.18485   3.48336   3.82062
   1 1   O  1S          0.00000  -0.00319   0.07363   0.00000
   2        2S          0.00000  -0.09581   0.12493   0.00000
   3        3S          0.00000   0.44418   1.92566   0.00000
   4        4PX         0.00000   0.00000   0.00000   0.00000
   5        4PY         0.00000   0.00000   0.00000  -0.46219
   6        4PZ         0.00000   0.00457  -0.37735   0.00000
   7        5PX         0.00000   0.00000   0.00000   0.00000
   8        5PY         0.00000   0.00000   0.00000  -1.10387
   9        5PZ         0.00000  -0.50279  -0.93608   0.00000
  10        6D 0        0.00000   1.05991   0.20365   0.00000
  11        6D+1        0.00000   0.00000   0.00000   0.00000
  12        6D-1        0.00000   0.00000   0.00000   1.33602
  13        6D+2        0.00000   0.23532  -1.12829   0.00000
  14        6D-2        1.05166   0.00000   0.00000   0.00000
  15 2   H  1S          0.00000  -0.25596  -1.14683   1.03641
  16        2S          0.00000  -0.04578  -0.23798   0.27233
  17        3PX        -0.37972   0.00000   0.00000   0.00000
  18        3PY         0.00000   0.34639   0.62305  -0.61385
  19        3PZ         0.00000   0.33763  -0.48533   0.52097
  20 3   H  1S          0.00000  -0.25596  -1.14683  -1.03641
  21        2S          0.00000  -0.04578  -0.23798  -0.27233
  22        3PX         0.37972   0.00000   0.00000   0.00000
  23        3PY         0.00000  -0.34639  -0.62305  -0.61385
  24        3PZ         0.00000   0.33763  -0.48533  -0.52097
     Density Matrix:
                           1         2         3         4         5
   1 1   O  1S          2.13311
   2        2S          0.27596   0.70900
   3        3S          0.25321   0.44728   0.40863
   4        4PX         0.00000   0.00000   0.00000   0.81463
   5        4PY         0.00000   0.00000   0.00000   0.00000   0.51029
   6        4PZ         0.06038   0.10528   0.34132   0.00000   0.00000
   7        5PX         0.00000   0.00000   0.00000   0.62584   0.00000
   8        5PY         0.00000   0.00000   0.00000   0.00000   0.20681
   9        5PZ         0.07589   0.15007   0.25260   0.00000   0.00000
  10        6D 0       -0.00288  -0.00492  -0.01222   0.00000   0.00000
  11        6D+1        0.00000   0.00000   0.00000  -0.02505   0.00000
  12        6D-1        0.00000   0.00000   0.00000   0.00000  -0.02334
  13        6D+2       -0.00022  -0.00564  -0.00209   0.00000   0.00000
  14        6D-2        0.00000   0.00000   0.00000   0.00000   0.00000
  15 2   H  1S          0.07278   0.13677  -0.04374   0.00000   0.33080
  16        2S         -0.01166  -0.01356  -0.04214   0.00000   0.10912
  17        3PX         0.00000   0.00000   0.00000   0.03882   0.00000
  18        3PY        -0.01676  -0.02345   0.00222   0.00000  -0.01416
  19        3PZ         0.01546   0.02255   0.01778   0.00000   0.02641
  20 3   H  1S          0.07278   0.13677  -0.04374   0.00000  -0.33080
  21        2S         -0.01166  -0.01356  -0.04214   0.00000  -0.10912
  22        3PX         0.00000   0.00000   0.00000   0.03882   0.00000
  23        3PY         0.01676   0.02345  -0.00222   0.00000  -0.01416
  24        3PZ         0.01546   0.02255   0.01778   0.00000  -0.02641
                           6         7         8         9        10
   6        4PZ         0.62506
   7        5PX         0.00000   0.48080
   8        5PY         0.00000   0.00000   0.08382
   9        5PZ         0.37190   0.00000   0.00000   0.23235
  10        6D 0       -0.02092   0.00000   0.00000  -0.01262   0.00070
  11        6D+1        0.00000  -0.01924   0.00000   0.00000   0.00000
  12        6D-1        0.00000   0.00000  -0.00946   0.00000   0.00000
  13        6D+2        0.00229   0.00000   0.00000   0.00060  -0.00006
  14        6D-2        0.00000   0.00000   0.00000   0.00000   0.00000
  15 2   H  1S         -0.27015   0.00000   0.13407  -0.13759   0.00867
  16        2S         -0.07616   0.00000   0.04422  -0.04542   0.00255
  17        3PX         0.00000   0.02982   0.00000   0.00000   0.00000
  18        3PY         0.03492   0.00000  -0.00574   0.01704  -0.00111
  19        3PZ         0.01074   0.00000   0.01071   0.00903  -0.00040
  20 3   H  1S         -0.27015   0.00000  -0.13407  -0.13759   0.00867
  21        2S         -0.07616   0.00000  -0.04422  -0.04542   0.00255
  22        3PX         0.00000   0.02982   0.00000   0.00000   0.00000
  23        3PY        -0.03492   0.00000  -0.00574  -0.01704   0.00111
  24        3PZ         0.01074   0.00000  -0.01071   0.00903  -0.00040
                          11        12        13        14        15
  11        6D+1        0.00077
  12        6D-1        0.00000   0.00107
  13        6D+2        0.00000   0.00000   0.00006
  14        6D-2        0.00000   0.00000   0.00000   0.00000
  15 2   H  1S          0.00000  -0.01513  -0.00255   0.00000   0.37967
  16        2S          0.00000  -0.00499  -0.00028   0.00000   0.10340
  17        3PX        -0.00119   0.00000   0.00000   0.00000   0.00000
  18        3PY         0.00000   0.00065   0.00038   0.00000  -0.03213
  19        3PZ         0.00000  -0.00121  -0.00014   0.00000   0.01804
  20 3   H  1S          0.00000   0.01513  -0.00255   0.00000  -0.04922
  21        2S          0.00000   0.00499  -0.00028   0.00000  -0.03807
  22        3PX        -0.00119   0.00000   0.00000   0.00000   0.00000
  23        3PY         0.00000   0.00065  -0.00038   0.00000   0.01377
  24        3PZ         0.00000   0.00121  -0.00014   0.00000  -0.01620
                          16        17        18        19        20
  16        2S          0.03262
  17        3PX         0.00000   0.00185
  18        3PY        -0.00723   0.00000   0.00363
  19        3PZ         0.00431   0.00000  -0.00104   0.00219
  20 3   H  1S         -0.03807   0.00000  -0.01377  -0.01620   0.37967
  21        2S         -0.01405   0.00000  -0.00118  -0.00699   0.10340
  22        3PX         0.00000   0.00185   0.00000   0.00000   0.00000
  23        3PY         0.00118   0.00000  -0.00284  -0.00042   0.03213
  24        3PZ        -0.00699   0.00000   0.00042  -0.00054   0.01804
                          21        22        23        24
  21        2S          0.03262
  22        3PX         0.00000   0.00185
  23        3PY         0.00723   0.00000   0.00363
  24        3PZ         0.00431   0.00000   0.00104   0.00219
    Full Mulliken population analysis:
                           1         2         3         4         5
   1 1   O  1S          2.13311
   2        2S         -0.09494   0.70900
   3        3S         -0.03997   0.35288   0.40863
   4        4PX         0.00000   0.00000   0.00000   0.81463
   5        4PY         0.00000   0.00000   0.00000   0.00000   0.51029
   6        4PZ         0.00000   0.00000   0.00000   0.00000   0.00000
   7        5PX         0.00000   0.00000   0.00000   0.31426   0.00000
   8        5PY         0.00000   0.00000   0.00000   0.00000   0.10385
   9        5PZ         0.00000   0.00000   0.00000   0.00000   0.00000
  10        6D 0        0.00000   0.00000   0.00000   0.00000   0.00000
  11        6D+1        0.00000   0.00000   0.00000   0.00000   0.00000
  12        6D-1        0.00000   0.00000   0.00000   0.00000   0.00000
  13        6D+2        0.00000   0.00000   0.00000   0.00000   0.00000
  14        6D-2        0.00000   0.00000   0.00000   0.00000   0.00000
  15 2   H  1S         -0.00339   0.04420  -0.02213   0.00000   0.07185
  16        2S          0.00072  -0.00528  -0.02895   0.00000   0.00907
  17        3PX         0.00000   0.00000   0.00000   0.00691   0.00000
  18        3PY        -0.00116   0.00788  -0.00057   0.00000   0.00239
  19        3PZ        -0.00085   0.00602   0.00363   0.00000   0.00727
  20 3   H  1S         -0.00339   0.04420  -0.02213   0.00000   0.07185
  21        2S          0.00072  -0.00528  -0.02895   0.00000   0.00907
  22        3PX         0.00000   0.00000   0.00000   0.00691   0.00000
  23        3PY        -0.00116   0.00788  -0.00057   0.00000   0.00239
  24        3PZ        -0.00085   0.00602   0.00363   0.00000   0.00727
                           6         7         8         9        10
   6        4PZ         0.62506
   7        5PX         0.00000   0.48080
   8        5PY         0.00000   0.00000   0.08382
   9        5PZ         0.18675   0.00000   0.00000   0.23235
  10        6D 0        0.00000   0.00000   0.00000   0.00000   0.00070
  11        6D+1        0.00000   0.00000   0.00000   0.00000   0.00000
  12        6D-1        0.00000   0.00000   0.00000   0.00000   0.00000
  13        6D+2        0.00000   0.00000   0.00000   0.00000   0.00000
  14        6D-2        0.00000   0.00000   0.00000   0.00000   0.00000
  15 2   H  1S          0.04662   0.00000   0.06521   0.05317   0.00016
  16        2S          0.00503   0.00000   0.01359   0.01109   0.00000
  17        3PX         0.00000   0.01072   0.00000   0.00000   0.00000
  18        3PY         0.00961   0.00000  -0.00033   0.00409   0.00019
  19        3PZ        -0.00044   0.00000   0.00257   0.00152   0.00008
  20 3   H  1S          0.04662   0.00000   0.06521   0.05317   0.00016
  21        2S          0.00503   0.00000   0.01359   0.01109   0.00000
  22        3PX         0.00000   0.01072   0.00000   0.00000   0.00000
  23        3PY         0.00961   0.00000  -0.00033   0.00409   0.00019
  24        3PZ        -0.00044   0.00000   0.00257   0.00152   0.00008
                          11        12        13        14        15
  11        6D+1        0.00077
  12        6D-1        0.00000   0.00107
  13        6D+2        0.00000   0.00000   0.00006
  14        6D-2        0.00000   0.00000   0.00000   0.00000
  15 2   H  1S          0.00000   0.00288   0.00031   0.00000   0.37967
  16        2S          0.00000   0.00010   0.00000   0.00000   0.07081
  17        3PX         0.00023   0.00000   0.00000   0.00000   0.00000
  18        3PY         0.00000   0.00012   0.00000   0.00000   0.00000
  19        3PZ         0.00000   0.00007   0.00003   0.00000   0.00000
  20 3   H  1S          0.00000   0.00288   0.00031   0.00000  -0.00597
  21        2S          0.00000   0.00010   0.00000   0.00000  -0.01172
  22        3PX         0.00023   0.00000   0.00000   0.00000   0.00000
  23        3PY         0.00000   0.00012   0.00000   0.00000   0.00195
  24        3PZ         0.00000   0.00007   0.00003   0.00000   0.00000
                          16        17        18        19        20
  16        2S          0.03262
  17        3PX         0.00000   0.00185
  18        3PY         0.00000   0.00000   0.00363
  19        3PZ         0.00000   0.00000   0.00000   0.00219
  20 3   H  1S         -0.01172   0.00000   0.00195   0.00000   0.37967
  21        2S         -0.00853   0.00000   0.00019   0.00000   0.07081
  22        3PX         0.00000   0.00007   0.00000   0.00000   0.00000
  23        3PY         0.00019   0.00000   0.00060   0.00000   0.00000
  24        3PZ         0.00000   0.00000   0.00000  -0.00002   0.00000
                          21        22        23        24
  21        2S          0.03262
  22        3PX         0.00000   0.00185
  23        3PY         0.00000   0.00000   0.00363
  24        3PZ         0.00000   0.00000   0.00000   0.00219
     Gross orbital populations:
                           1
   1 1   O  1S          1.98886
   2        2S          1.07258
   3        3S          0.62551
   4        4PX         1.14271
   5        4PY         0.79529
   6        4PZ         0.93346
   7        5PX         0.81650
   8        5PY         0.34973
   9        5PZ         0.55883
  10        6D 0        0.00157
  11        6D+1        0.00123
  12        6D-1        0.00740
  13        6D+2        0.00073
  14        6D-2        0.00000
  15 2   H  1S          0.69360
  16        2S          0.08875
  17        3PX         0.01978
  18        3PY         0.02858
  19        3PZ         0.02208
  20 3   H  1S          0.69360
  21        2S          0.08875
  22        3PX         0.01978
  23        3PY         0.02858
  24        3PZ         0.02208
          Condensed to atoms (all electrons):
               1          2          3
     1  O    7.645937   0.324230   0.324230
     2  H    0.324230   0.561574  -0.033002
     3  H    0.324230  -0.033002   0.561574
 Mulliken charges:
               1
     1  O   -0.294397
     2  H    0.147199
     3  H    0.147199
 Sum of Mulliken charges =   0.00000
 Mulliken charges with hydrogens summed into heavy atoms:
               1
     1  O    0.000000
 Electronic spatial extent (au):  <R**2>=             19.0144
 Charge=              0.0000 electrons
 Dipole moment (field-independent basis, Debye):
    X=              0.0000    Y=              0.0000    Z=             -2.0049  Tot=              2.0049
 Quadrupole moment (field-independent basis, Debye-Ang):
   XX=             -7.0031   YY=             -4.3537   ZZ=             -5.9364
   XY=              0.0000   XZ=              0.0000   YZ=              0.0000
 Traceless Quadrupole moment (field-independent basis, Debye-Ang):
   XX=             -1.2387   YY=              1.4107   ZZ=             -0.1720
   XY=              0.0000   XZ=              0.0000   YZ=              0.0000
 Octapole moment (field-independent basis, Debye-Ang**2):
  XXX=              0.0000  YYY=              0.0000  ZZZ=             -1.0659  XYY=              0.0000
  XXY=              0.0000  XXZ=             -0.2769  XZZ=              0.0000  YZZ=              0.0000
  YYZ=             -1.1065  XYZ=              0.0000
 Hexadecapole moment (field-independent basis, Debye-Ang**3):
 XXXX=             -4.8417 YYYY=             -6.2007 ZZZZ=             -6.1593 XXXY=              0.0000
 XXXZ=              0.0000 YYYX=              0.0000 YYYZ=              0.0000 ZZZX=              0.0000
 ZZZY=              0.0000 XXYY=             -2.0917 XXZZ=             -1.8883 YYZZ=             -1.7271
 XXYZ=              0.0000 YYXZ=              0.0000 ZZXY=              0.0000
 N-N= 9.108372701295D+00 E-N=-1.988004509174D+02  KE= 7.583633330556D+01
 Symmetry A1   KE= 6.766486789596D+01
 Symmetry A2   KE= 9.006522035674D-35
 Symmetry B1   KE= 4.631309264715D+00
 Symmetry B2   KE= 3.540156144880D+00
 Orbital energies and kinetic energies (alpha):
                                 1                 2
   1         (A1)--O         -19.119667         28.761469
   2         (A1)--O          -0.979836          2.804334
   3         (B2)--O          -0.511573          1.770078
   4         (A1)--O          -0.367968          2.266631
   5         (B1)--O          -0.291677          2.315655
   6         (A1)--V           0.044799          0.953974
   7         (B2)--V           0.123898          1.032280
   8         (B2)--V           0.555026          1.904989
   9         (A1)--V           0.620631          2.460028
  10         (A1)--V           0.917361          3.451763
  11         (B1)--V           0.920344          3.655729
  12         (B2)--V           1.006874          2.912944
  13         (A1)--V           1.095203          3.331836
  14         (A2)--V           1.347775          2.134980
  15         (A1)--V           1.395000          2.365104
  16         (B1)--V           1.542030          2.294960
  17         (B2)--V           1.786872          2.481561
  18         (B2)--V           2.198799          4.077218
  19         (A1)--V           2.246054          4.436890
  20         (B1)--V           2.960656          4.457783
  21         (A2)--V           2.996582          4.529937
  22         (A1)--V           3.184848          4.737698
  23         (A1)--V           3.483361          5.481844
  24         (B2)--V           3.820621          5.851226
 Total kinetic energy from orbitals= 7.583633330556D+01
 No NMR shielding tensors so no spin-rotation constants.
 Leave Link  601 at Mon May 27 17:26:02 2019, MaxMem=   131072000 cpu:         0.1
 (Enter /applis/g09/l9999.exe)
 1\1\GINC-MOLTECH-CALC0\FOpt\RB3LYP\SVP\H2O1\TCAUCHY\27-May-2019\0\\#P 
 OPT B3LYP svp Direct gfprint pop=(full)\\OPT H20 B3LYP 6-31G*\\0,1\O,0
 .,0.,-0.0991046248\H,0.,0.7568575068,-0.7004476876\H,0.,-0.7568575068,
 -0.7004476876\\Version=EM64L-G09RevD.01\State=1-A1\HF=-76.3583153\RMSD
 =9.728e-10\RMSF=3.719e-05\Dipole=0.,0.,-0.7887922\Quadrupole=-0.920934
 1,1.0488192,-0.1278851,0.,0.,0.\PG=C02V [C2(O1),SGV(H2)]\\@


 Everything starts as somebody's daydream.
                           -- Larry Niven
 Job cpu time:       0 days  0 hours  0 minutes  2.8 seconds.
 File lengths (MBytes):  RWF=      5 Int=      0 D2E=      0 Chk=      1 Scr=      1
 Normal termination of Gaussian 09 at Mon May 27 17:26:02 2019.
