 Entering Gaussian System, Link 0=g09
 Input=H2O_OPT_NOpop.inp
 Output=H2O_OPT_NOpop.log
 Initial command:
 /applis/g09/l1.exe "/tmp/Gau-12192.inp" -scrdir="/tmp/"
 Entering Link 1 = /applis/g09/l1.exe PID=     12194.
  
 Copyright (c) 1988,1990,1992,1993,1995,1998,2003,2009,2013,
            Gaussian, Inc.  All Rights Reserved.
  
 This is part of the Gaussian(R) 09 program.  It is based on
 the Gaussian(R) 03 system (copyright 2003, Gaussian, Inc.),
 the Gaussian(R) 98 system (copyright 1998, Gaussian, Inc.),
 the Gaussian(R) 94 system (copyright 1995, Gaussian, Inc.),
 the Gaussian 92(TM) system (copyright 1992, Gaussian, Inc.),
 the Gaussian 90(TM) system (copyright 1990, Gaussian, Inc.),
 the Gaussian 88(TM) system (copyright 1988, Gaussian, Inc.),
 the Gaussian 86(TM) system (copyright 1986, Carnegie Mellon
 University), and the Gaussian 82(TM) system (copyright 1983,
 Carnegie Mellon University). Gaussian is a federally registered
 trademark of Gaussian, Inc.
  
 This software contains proprietary and confidential information,
 including trade secrets, belonging to Gaussian, Inc.
  
 This software is provided under written license and may be
 used, copied, transmitted, or stored only in accord with that
 written license.
  
 The following legend is applicable only to US Government
 contracts under FAR:
  
                    RESTRICTED RIGHTS LEGEND
  
 Use, reproduction and disclosure by the US Government is
 subject to restrictions as set forth in subparagraphs (a)
 and (c) of the Commercial Computer Software - Restricted
 Rights clause in FAR 52.227-19.
  
 Gaussian, Inc.
 340 Quinnipiac St., Bldg. 40, Wallingford CT 06492
  
  
 ---------------------------------------------------------------
 Warning -- This program may not be used in any manner that
 competes with the business of Gaussian, Inc. or will provide
 assistance to any competitor of Gaussian, Inc.  The licensee
 of this program is prohibited from giving any competitor of
 Gaussian, Inc. access to this program.  By using this program,
 the user acknowledges that Gaussian, Inc. is engaged in the
 business of creating and licensing software in the field of
 computational chemistry and represents and warrants to the
 licensee that it is not a competitor of Gaussian, Inc. and that
 it will not use this program in any manner prohibited above.
 ---------------------------------------------------------------
  

 Cite this work as:
 Gaussian 09, Revision D.01,
 M. J. Frisch, G. W. Trucks, H. B. Schlegel, G. E. Scuseria, 
 M. A. Robb, J. R. Cheeseman, G. Scalmani, V. Barone, B. Mennucci, 
 G. A. Petersson, H. Nakatsuji, M. Caricato, X. Li, H. P. Hratchian, 
 A. F. Izmaylov, J. Bloino, G. Zheng, J. L. Sonnenberg, M. Hada, 
 M. Ehara, K. Toyota, R. Fukuda, J. Hasegawa, M. Ishida, T. Nakajima, 
 Y. Honda, O. Kitao, H. Nakai, T. Vreven, J. A. Montgomery, Jr., 
 J. E. Peralta, F. Ogliaro, M. Bearpark, J. J. Heyd, E. Brothers, 
 K. N. Kudin, V. N. Staroverov, T. Keith, R. Kobayashi, J. Normand, 
 K. Raghavachari, A. Rendell, J. C. Burant, S. S. Iyengar, J. Tomasi, 
 M. Cossi, N. Rega, J. M. Millam, M. Klene, J. E. Knox, J. B. Cross, 
 V. Bakken, C. Adamo, J. Jaramillo, R. Gomperts, R. E. Stratmann, 
 O. Yazyev, A. J. Austin, R. Cammi, C. Pomelli, J. W. Ochterski, 
 R. L. Martin, K. Morokuma, V. G. Zakrzewski, G. A. Voth, 
 P. Salvador, J. J. Dannenberg, S. Dapprich, A. D. Daniels, 
 O. Farkas, J. B. Foresman, J. V. Ortiz, J. Cioslowski, 
 and D. J. Fox, Gaussian, Inc., Wallingford CT, 2013.
 
 ******************************************
 Gaussian 09:  EM64L-G09RevD.01 24-Apr-2013
                27-May-2019 
 ******************************************
 %Chk=H2O_OPT_NOpop
 %nprocshared=1
 Will use up to    1 processors via shared memory.
 %mem=1000MB
 -------------------------------
 #P OPT B3LYP svp Direct gfprint
 -------------------------------
 1/14=-1,18=20,19=15,26=3,38=1/1,3;
 2/9=110,12=2,17=6,18=5,40=1/2;
 3/5=18,7=101,11=2,16=1,24=100,25=1,30=1,71=1,74=-5/1,2,3;
 4//1;
 5/5=2,38=5/2;
 6/7=2,8=2,9=2,10=2,28=1/1;
 7//1,2,3,16;
 1/14=-1,18=20,19=15,26=3/3(2);
 2/9=110/2;
 99//99;
 2/9=110/2;
 3/5=18,7=101,11=2,16=1,25=1,30=1,71=1,74=-5/1,2,3;
 4/5=5,16=3,69=1/1;
 5/5=2,38=5/2;
 7//1,2,3,16;
 1/14=-1,18=20,19=15,26=3/3(-5);
 2/9=110/2;
 6/7=2,8=2,9=2,10=2,19=2,28=1/1;
 99/9=1/99;
 Leave Link    1 at Mon May 27 17:27:11 2019, MaxMem=   131072000 cpu:         0.0
 (Enter /applis/g09/l101.exe)
 --------------------
 OPT H20 B3LYP 6-31G*
 --------------------
 Symbolic Z-matrix:
 Charge =  0 Multiplicity = 1
 O                     0.        0.       -0.111 
 H                     0.        0.75941  -0.6945 
 H                     0.       -0.75941  -0.6945 
 
 NAtoms=      3 NQM=        3 NQMF=       0 NMMI=      0 NMMIF=      0
                NMic=       0 NMicF=      0.
                    Isotopes and Nuclear Properties:
 (Nuclear quadrupole moments (NQMom) in fm**2, nuclear magnetic moments (NMagM)
  in nuclear magnetons)

  Atom         1           2           3
 IAtWgt=          16           1           1
 AtmWgt=  15.9949146   1.0078250   1.0078250
 NucSpn=           0           1           1
 AtZEff=   0.0000000   0.0000000   0.0000000
 NQMom=    0.0000000   0.0000000   0.0000000
 NMagM=    0.0000000   2.7928460   2.7928460
 AtZNuc=   8.0000000   1.0000000   1.0000000
 Leave Link  101 at Mon May 27 17:27:11 2019, MaxMem=   131072000 cpu:         0.1
 (Enter /applis/g09/l103.exe)

 GradGradGradGradGradGradGradGradGradGradGradGradGradGradGradGradGradGrad
 Berny optimization.
 Initialization pass.
                           ----------------------------
                           !    Initial Parameters    !
                           ! (Angstroms and Degrees)  !
 --------------------------                            --------------------------
 ! Name  Definition              Value          Derivative Info.                !
 --------------------------------------------------------------------------------
 ! R1    R(1,2)                  0.9577         estimate D2E/DX2                !
 ! R2    R(1,3)                  0.9577         estimate D2E/DX2                !
 ! A1    A(2,1,3)              104.9259         estimate D2E/DX2                !
 --------------------------------------------------------------------------------
 Trust Radius=3.00D-01 FncErr=1.00D-07 GrdErr=1.00D-06
 Number of steps in this run=     20 maximum allowed number of steps=    100.
 GradGradGradGradGradGradGradGradGradGradGradGradGradGradGradGradGradGrad

 Leave Link  103 at Mon May 27 17:27:12 2019, MaxMem=   131072000 cpu:         0.0
 (Enter /applis/g09/l202.exe)
                          Input orientation:                          
 ---------------------------------------------------------------------
 Center     Atomic      Atomic             Coordinates (Angstroms)
 Number     Number       Type             X           Y           Z
 ---------------------------------------------------------------------
      1          8           0        0.000000    0.000000   -0.111004
      2          1           0        0.000000    0.759407   -0.694498
      3          1           0        0.000000   -0.759407   -0.694498
 ---------------------------------------------------------------------
                    Distance matrix (angstroms):
                    1          2          3
     1  O    0.000000
     2  H    0.957687   0.000000
     3  H    0.957687   1.518814   0.000000
 Stoichiometry    H2O
 Framework group  C2V[C2(O),SGV(H2)]
 Deg. of freedom     2
 Full point group                 C2V     NOp   4
 Largest Abelian subgroup         C2V     NOp   4
 Largest concise Abelian subgroup C2      NOp   2
                         Standard orientation:                         
 ---------------------------------------------------------------------
 Center     Atomic      Atomic             Coordinates (Angstroms)
 Number     Number       Type             X           Y           Z
 ---------------------------------------------------------------------
      1          8           0        0.000000    0.000000    0.116699
      2          1           0        0.000000    0.759407   -0.466795
      3          1           0        0.000000   -0.759407   -0.466795
 ---------------------------------------------------------------------
 Rotational constants (GHZ):    829.2293618    434.7632886    285.2219783
 Leave Link  202 at Mon May 27 17:27:12 2019, MaxMem=   131072000 cpu:         0.0
 (Enter /applis/g09/l301.exe)
 Standard basis: SVP (5D, 7F)
 Ernie: Thresh=  0.10000D-02 Tol=  0.10000D-05 Strict=F.
 AO basis set (Overlap normalization):
 Atom O1       Shell     1 S   5     bf    1 -     1          0.000000000000          0.000000000000          0.220528772036
      0.2266176779D+04 -0.5389349396D-02
      0.3408701019D+03 -0.4023472220D-01
      0.7736313517D+02 -0.1800818424D+00
      0.2147964494D+02 -0.4682885774D+00
      0.6658943310D+01 -0.4469261703D+00
 Atom O1       Shell     2 S   1     bf    2 -     2          0.000000000000          0.000000000000          0.220528772036
      0.8097597600D+00  0.1000000000D+01
 Atom O1       Shell     3 S   1     bf    3 -     3          0.000000000000          0.000000000000          0.220528772036
      0.2553077200D+00  0.1000000000D+01
 Atom O1       Shell     4 P   3     bf    4 -     6          0.000000000000          0.000000000000          0.220528772036
      0.1772150432D+02  0.6263024412D-01
      0.3863550540D+01  0.3333113880D+00
      0.1048092090D+01  0.7414863817D+00
 Atom O1       Shell     5 P   1     bf    7 -     9          0.000000000000          0.000000000000          0.220528772036
      0.2764154400D+00  0.1000000000D+01
 Atom O1       Shell     6 D   1     bf   10 -    14          0.000000000000          0.000000000000          0.220528772036
      0.1200000000D+01  0.1000000000D+01
 Atom H2       Shell     7 S   3     bf   15 -    15          0.000000000000          1.435071253396         -0.882115088146
      0.1301070100D+02  0.3348548818D-01
      0.1962257200D+01  0.2347218706D+00
      0.4445379600D+00  0.8137702843D+00
 Atom H2       Shell     8 S   1     bf   16 -    16          0.000000000000          1.435071253396         -0.882115088146
      0.1219496200D+00  0.1000000000D+01
 Atom H2       Shell     9 P   1     bf   17 -    19          0.000000000000          1.435071253396         -0.882115088146
      0.8000000000D+00  0.1000000000D+01
 Atom H3       Shell    10 S   3     bf   20 -    20          0.000000000000         -1.435071253396         -0.882115088146
      0.1301070100D+02  0.3348548818D-01
      0.1962257200D+01  0.2347218706D+00
      0.4445379600D+00  0.8137702843D+00
 Atom H3       Shell    11 S   1     bf   21 -    21          0.000000000000         -1.435071253396         -0.882115088146
      0.1219496200D+00  0.1000000000D+01
 Atom H3       Shell    12 P   1     bf   22 -    24          0.000000000000         -1.435071253396         -0.882115088146
      0.8000000000D+00  0.1000000000D+01
 There are    12 symmetry adapted cartesian basis functions of A1  symmetry.
 There are     2 symmetry adapted cartesian basis functions of A2  symmetry.
 There are     4 symmetry adapted cartesian basis functions of B1  symmetry.
 There are     7 symmetry adapted cartesian basis functions of B2  symmetry.
 There are    11 symmetry adapted basis functions of A1  symmetry.
 There are     2 symmetry adapted basis functions of A2  symmetry.
 There are     4 symmetry adapted basis functions of B1  symmetry.
 There are     7 symmetry adapted basis functions of B2  symmetry.
    24 basis functions,    39 primitive gaussians,    25 cartesian basis functions
     5 alpha electrons        5 beta electrons
       nuclear repulsion energy         9.1893367177 Hartrees.
 IExCor=  402 DFT=T Ex+Corr=B3LYP ExCW=0 ScaHFX=  0.200000
 ScaDFX=  0.800000  0.720000  1.000000  0.810000 ScalE2=  1.000000  1.000000
 IRadAn=      0 IRanWt=     -1 IRanGd=            0 ICorTp=0 IEmpDi=  4
 NAtoms=    3 NActive=    3 NUniq=    2 SFac= 2.25D+00 NAtFMM=   60 NAOKFM=F Big=F
 Integral buffers will be    131072 words long.
 Raffenetti 2 integral format.
 Two-electron integral symmetry is turned on.
 Leave Link  301 at Mon May 27 17:27:12 2019, MaxMem=   131072000 cpu:         0.0
 (Enter /applis/g09/l302.exe)
 NPDir=0 NMtPBC=     1 NCelOv=     1 NCel=       1 NClECP=     1 NCelD=      1
         NCelK=      1 NCelE2=     1 NClLst=     1 CellRange=     0.0.
 One-electron integrals computed using PRISM.
 One-electron integral symmetry used in STVInt
 NBasis=    24 RedAO= T EigKep=  5.93D-02  NBF=    11     2     4     7
 NBsUse=    24 1.00D-06 EigRej= -1.00D+00 NBFU=    11     2     4     7
 Precomputing XC quadrature grid using
 IXCGrd= 4 IRadAn=           0 IRanWt=          -1 IRanGd=           0 AccXCQ= 0.00D+00.
 Generated NRdTot=       0 NPtTot=           0 NUsed=           0 NTot=          32
 NSgBfM=    25    25    25    25    25 MxSgAt=     3 MxSgA2=     3.
 Leave Link  302 at Mon May 27 17:27:12 2019, MaxMem=   131072000 cpu:         0.1
 (Enter /applis/g09/l303.exe)
 DipDrv:  MaxL=1.
 Leave Link  303 at Mon May 27 17:27:12 2019, MaxMem=   131072000 cpu:         0.0
 (Enter /applis/g09/l401.exe)
 ExpMin= 1.22D-01 ExpMax= 2.27D+03 ExpMxC= 3.41D+02 IAcc=1 IRadAn=         1 AccDes= 0.00D+00
 Harris functional with IExCor=  402 and IRadAn=       1 diagonalized for initial guess.
 HarFok:  IExCor=  402 AccDes= 0.00D+00 IRadAn=         1 IDoV= 1 UseB2=F ITyADJ=14
 ICtDFT=  3500011 ScaDFX=  1.000000  1.000000  1.000000  1.000000
 FoFCou: FMM=F IPFlag=           0 FMFlag=      100000 FMFlg1=           0
         NFxFlg=           0 DoJE=T BraDBF=F KetDBF=T FulRan=T
         wScrn=  0.000000 ICntrl=     500 IOpCl=  0 I1Cent=   200000004 NGrid=           0
         NMat0=    1 NMatS0=      1 NMatT0=    0 NMatD0=    1 NMtDS0=    0 NMtDT0=    0
 Petite list used in FoFCou.
 Harris En= -76.3969328750875    
 JPrj=0 DoOrth=F DoCkMO=F.
 Initial guess orbital symmetries:
       Occupied  (A1) (A1) (B2) (A1) (B1)
       Virtual   (A1) (B2) (B2) (A1) (A1) (B1) (B2) (A1) (A2) (A1)
                 (B1) (B2) (B2) (A1) (B1) (A2) (A1) (A1) (B2)
 The electronic state of the initial guess is 1-A1.
 Leave Link  401 at Mon May 27 17:27:12 2019, MaxMem=   131072000 cpu:         0.1
 (Enter /applis/g09/l502.exe)
 Closed shell SCF:
 Using DIIS extrapolation, IDIIS=  1040.
 Integral symmetry usage will be decided dynamically.
 Keep R1 ints in memory in symmetry-blocked form, NReq=926891.
 IVT=       20839 IEndB=       20839 NGot=   131072000 MDV=   131037463
 LenX=   131037463 LenY=   131036397
 Requested convergence on RMS density matrix=1.00D-08 within 128 cycles.
 Requested convergence on MAX density matrix=1.00D-06.
 Requested convergence on             energy=1.00D-06.
 No special actions if energy rises.
 FoFCou: FMM=F IPFlag=           0 FMFlag=           0 FMFlg1=           0
         NFxFlg=           0 DoJE=F BraDBF=F KetDBF=F FulRan=T
         wScrn=  0.000000 ICntrl=     600 IOpCl=  0 I1Cent=           0 NGrid=           0
         NMat0=    1 NMatS0=    300 NMatT0=    0 NMatD0=    1 NMtDS0=    0 NMtDT0=    0
 Petite list used in FoFCou.
 Integral accuracy reduced to 1.0D-05 until final iterations.

 Cycle   1  Pass 0  IDiag  1:
 E= -76.2808070005441    
 DIIS: error= 7.87D-02 at cycle   1 NSaved=   1.
 NSaved= 1 IEnMin= 1 EnMin= -76.2808070005441     IErMin= 1 ErrMin= 7.87D-02
 ErrMax= 7.87D-02  0.00D+00 EMaxC= 1.00D-01 BMatC= 1.04D-01 BMatP= 1.04D-01
 IDIUse=3 WtCom= 2.13D-01 WtEn= 7.87D-01
 Coeff-Com:  0.100D+01
 Coeff-En:   0.100D+01
 Coeff:      0.100D+01
 Gap=     0.192 Goal=   None    Shift=    0.000
 GapD=    0.192 DampG=1.000 DampE=0.500 DampFc=0.5000 IDamp=-1.
 Damping current iteration by 5.00D-01
 RMSDP=2.07D-02 MaxDP=1.66D-01              OVMax= 2.00D-01

 Cycle   2  Pass 0  IDiag  1:
 E= -76.3078217706649     Delta-E=       -0.027014770121 Rises=F Damp=T
 DIIS: error= 1.78D-02 at cycle   2 NSaved=   2.
 NSaved= 2 IEnMin= 2 EnMin= -76.3078217706649     IErMin= 2 ErrMin= 1.78D-02
 ErrMax= 1.78D-02  0.00D+00 EMaxC= 1.00D-01 BMatC= 5.36D-03 BMatP= 1.04D-01
 IDIUse=3 WtCom= 8.22D-01 WtEn= 1.78D-01
 Coeff-Com:  0.174D+00 0.826D+00
 Coeff-En:   0.292D+00 0.708D+00
 Coeff:      0.195D+00 0.805D+00
 Gap=     0.327 Goal=   None    Shift=    0.000
 RMSDP=2.37D-03 MaxDP=2.91D-02 DE=-2.70D-02 OVMax= 1.10D-01

 Cycle   3  Pass 0  IDiag  1:
 E= -76.3580173359336     Delta-E=       -0.050195565269 Rises=F Damp=F
 DIIS: error= 2.46D-03 at cycle   3 NSaved=   3.
 NSaved= 3 IEnMin= 3 EnMin= -76.3580173359336     IErMin= 3 ErrMin= 2.46D-03
 ErrMax= 2.46D-03  0.00D+00 EMaxC= 1.00D-01 BMatC= 1.34D-04 BMatP= 5.36D-03
 IDIUse=3 WtCom= 9.75D-01 WtEn= 2.46D-02
 Coeff-Com:  0.350D-01 0.153D-01 0.950D+00
 Coeff-En:   0.000D+00 0.000D+00 0.100D+01
 Coeff:      0.341D-01 0.149D-01 0.951D+00
 Gap=     0.339 Goal=   None    Shift=    0.000
 RMSDP=3.13D-04 MaxDP=2.76D-03 DE=-5.02D-02 OVMax= 2.53D-03

 Cycle   4  Pass 0  IDiag  1:
 E= -76.3581067149382     Delta-E=       -0.000089379005 Rises=F Damp=F
 DIIS: error= 3.00D-04 at cycle   4 NSaved=   4.
 NSaved= 4 IEnMin= 4 EnMin= -76.3581067149382     IErMin= 4 ErrMin= 3.00D-04
 ErrMax= 3.00D-04  0.00D+00 EMaxC= 1.00D-01 BMatC= 1.87D-06 BMatP= 1.34D-04
 IDIUse=3 WtCom= 9.97D-01 WtEn= 3.00D-03
 Coeff-Com:  0.453D-02-0.168D-01 0.206D+00 0.806D+00
 Coeff-En:   0.000D+00 0.000D+00 0.000D+00 0.100D+01
 Coeff:      0.451D-02-0.167D-01 0.205D+00 0.807D+00
 Gap=     0.339 Goal=   None    Shift=    0.000
 RMSDP=2.56D-05 MaxDP=1.93D-04 DE=-8.94D-05 OVMax= 2.43D-04

 Cycle   5  Pass 0  IDiag  1:
 E= -76.3581078700638     Delta-E=       -0.000001155126 Rises=F Damp=F
 DIIS: error= 4.87D-05 at cycle   5 NSaved=   5.
 NSaved= 5 IEnMin= 5 EnMin= -76.3581078700638     IErMin= 5 ErrMin= 4.87D-05
 ErrMax= 4.87D-05  0.00D+00 EMaxC= 1.00D-01 BMatC= 3.52D-08 BMatP= 1.87D-06
 IDIUse=1 WtCom= 1.00D+00 WtEn= 0.00D+00
 Coeff-Com:  0.482D-03-0.483D-03 0.590D-03-0.116D-01 0.101D+01
 Coeff:      0.482D-03-0.483D-03 0.590D-03-0.116D-01 0.101D+01
 Gap=     0.339 Goal=   None    Shift=    0.000
 RMSDP=4.52D-06 MaxDP=4.75D-05 DE=-1.16D-06 OVMax= 4.10D-05

 Initial convergence to 1.0D-05 achieved.  Increase integral accuracy.
 Cycle   6  Pass 1  IDiag  1:
 E= -76.3581115501589     Delta-E=       -0.000003680095 Rises=F Damp=F
 DIIS: error= 2.93D-06 at cycle   1 NSaved=   1.
 NSaved= 1 IEnMin= 1 EnMin= -76.3581115501589     IErMin= 1 ErrMin= 2.93D-06
 ErrMax= 2.93D-06  0.00D+00 EMaxC= 1.00D-01 BMatC= 1.37D-10 BMatP= 1.37D-10
 IDIUse=1 WtCom= 1.00D+00 WtEn= 0.00D+00
 Coeff-Com:  0.100D+01
 Coeff:      0.100D+01
 Gap=     0.339 Goal=   None    Shift=    0.000
 RMSDP=4.52D-06 MaxDP=4.75D-05 DE=-3.68D-06 OVMax= 4.17D-06

 Cycle   7  Pass 1  IDiag  1:
 E= -76.3581115502524     Delta-E=       -0.000000000093 Rises=F Damp=F
 DIIS: error= 3.77D-07 at cycle   2 NSaved=   2.
 NSaved= 2 IEnMin= 2 EnMin= -76.3581115502524     IErMin= 2 ErrMin= 3.77D-07
 ErrMax= 3.77D-07  0.00D+00 EMaxC= 1.00D-01 BMatC= 3.77D-12 BMatP= 1.37D-10
 IDIUse=1 WtCom= 1.00D+00 WtEn= 0.00D+00
 Coeff-Com:  0.270D-01 0.973D+00
 Coeff:      0.270D-01 0.973D+00
 Gap=     0.339 Goal=   None    Shift=    0.000
 RMSDP=8.61D-08 MaxDP=7.68D-07 DE=-9.35D-11 OVMax= 1.07D-06

 Cycle   8  Pass 1  IDiag  1:
 E= -76.3581115502526     Delta-E=        0.000000000000 Rises=F Damp=F
 DIIS: error= 4.22D-07 at cycle   3 NSaved=   3.
 NSaved= 3 IEnMin= 3 EnMin= -76.3581115502526     IErMin= 2 ErrMin= 3.77D-07
 ErrMax= 4.22D-07  0.00D+00 EMaxC= 1.00D-01 BMatC= 3.48D-12 BMatP= 3.77D-12
 IDIUse=1 WtCom= 1.00D+00 WtEn= 0.00D+00
 Coeff-Com: -0.506D-02 0.491D+00 0.514D+00
 Coeff:     -0.506D-02 0.491D+00 0.514D+00
 Gap=     0.339 Goal=   None    Shift=    0.000
 RMSDP=5.71D-08 MaxDP=4.70D-07 DE=-2.56D-13 OVMax= 5.29D-07

 Cycle   9  Pass 1  IDiag  1:
 E= -76.3581115502549     Delta-E=       -0.000000000002 Rises=F Damp=F
 DIIS: error= 8.98D-08 at cycle   4 NSaved=   4.
 NSaved= 4 IEnMin= 4 EnMin= -76.3581115502549     IErMin= 4 ErrMin= 8.98D-08
 ErrMax= 8.98D-08  0.00D+00 EMaxC= 1.00D-01 BMatC= 1.58D-13 BMatP= 3.48D-12
 IDIUse=1 WtCom= 1.00D+00 WtEn= 0.00D+00
 Coeff-Com: -0.544D-02 0.132D+00 0.230D+00 0.644D+00
 Coeff:     -0.544D-02 0.132D+00 0.230D+00 0.644D+00
 Gap=     0.339 Goal=   None    Shift=    0.000
 RMSDP=9.21D-09 MaxDP=7.79D-08 DE=-2.30D-12 OVMax= 9.16D-08

 SCF Done:  E(RB3LYP) =  -76.3581115503     A.U. after    9 cycles
            NFock=  9  Conv=0.92D-08     -V/T= 2.0066
 KE= 7.585949225147D+01 PE=-1.989733596938D+02 EE= 3.756641917437D+01
 Leave Link  502 at Mon May 27 17:27:12 2019, MaxMem=   131072000 cpu:         0.2
 (Enter /applis/g09/l601.exe)
 Copying SCF densities to generalized density rwf, IOpCl= 0 IROHF=0.

 **********************************************************************

            Population analysis using the SCF density.

 **********************************************************************

 Orbital symmetries:
       Occupied  (A1) (A1) (B2) (A1) (B1)
       Virtual   (A1) (B2) (B2) (A1) (A1) (B1) (B2) (A1) (A2) (A1)
                 (B1) (B2) (B2) (A1) (B1) (A2) (A1) (A1) (B2)
 The electronic state is 1-A1.
 Alpha  occ. eigenvalues --  -19.11743  -0.98211  -0.51810  -0.36492  -0.29176
 Alpha virt. eigenvalues --    0.04715   0.12628   0.56634   0.62243   0.91635
 Alpha virt. eigenvalues --    0.92093   1.00598   1.09179   1.34377   1.41674
 Alpha virt. eigenvalues --    1.55322   1.78467   2.22326   2.26296   2.95942
 Alpha virt. eigenvalues --    3.01312   3.19079   3.50699   3.81919
          Condensed to atoms (all electrons):
               1          2          3
     1  O    7.631768   0.329690   0.329690
     2  H    0.329690   0.557724  -0.032989
     3  H    0.329690  -0.032989   0.557724
 Mulliken charges:
               1
     1  O   -0.291149
     2  H    0.145574
     3  H    0.145574
 Sum of Mulliken charges =   0.00000
 Mulliken charges with hydrogens summed into heavy atoms:
               1
     1  O    0.000000
 Electronic spatial extent (au):  <R**2>=             18.8902
 Charge=              0.0000 electrons
 Dipole moment (field-independent basis, Debye):
    X=              0.0000    Y=              0.0000    Z=             -1.9760  Tot=              1.9760
 Quadrupole moment (field-independent basis, Debye-Ang):
   XX=             -6.9846   YY=             -4.2913   ZZ=             -5.9755
   XY=              0.0000   XZ=              0.0000   YZ=              0.0000
 Traceless Quadrupole moment (field-independent basis, Debye-Ang):
   XX=             -1.2341   YY=              1.4592   ZZ=             -0.2250
   XY=              0.0000   XZ=              0.0000   YZ=              0.0000
 Octapole moment (field-independent basis, Debye-Ang**2):
  XXX=              0.0000  YYY=              0.0000  ZZZ=             -1.0509  XYY=              0.0000
  XXY=              0.0000  XXZ=             -0.2800  XZZ=              0.0000  YZZ=              0.0000
  YYZ=             -1.0953  XYZ=              0.0000
 Hexadecapole moment (field-independent basis, Debye-Ang**3):
 XXXX=             -4.8186 YYYY=             -6.0789 ZZZZ=             -6.0570 XXXY=              0.0000
 XXXZ=              0.0000 YYYX=              0.0000 YYYZ=              0.0000 ZZZX=              0.0000
 ZZZY=              0.0000 XXYY=             -2.0735 XXZZ=             -1.8616 YYZZ=             -1.7196
 XXYZ=              0.0000 YYXZ=              0.0000 ZZXY=              0.0000
 N-N= 9.189336717684D+00 E-N=-1.989733574338D+02  KE= 7.585949225147D+01
 Symmetry A1   KE= 6.767951387428D+01
 Symmetry A2   KE= 1.253994776718D-35
 Symmetry B1   KE= 4.627707824509D+00
 Symmetry B2   KE= 3.552270552676D+00
 No NMR shielding tensors so no spin-rotation constants.
 Leave Link  601 at Mon May 27 17:27:12 2019, MaxMem=   131072000 cpu:         0.1
 (Enter /applis/g09/l701.exe)
 Compute integral first derivatives.
 ... and contract with generalized density number  0.
 Leave Link  701 at Mon May 27 17:27:12 2019, MaxMem=   131072000 cpu:         0.1
 (Enter /applis/g09/l702.exe)
 L702 exits ... SP integral derivatives will be done elsewhere.
 Leave Link  702 at Mon May 27 17:27:12 2019, MaxMem=   131072000 cpu:         0.0
 (Enter /applis/g09/l703.exe)
 Compute integral first derivatives, UseDBF=F ICtDFT=           0.
 Integral derivatives from FoFJK, PRISM(SPDF).
 Calling FoFJK, ICntrl=      2127 FMM=F ISym2X=1 I1Cent= 0 IOpClX= 0 NMat=1 NMatS=1 NMatT=0.
 FoFJK:  IHMeth= 1 ICntrl=    2127 DoSepK=F KAlg= 0 I1Cent=   0 FoldK=F
 IRaf=         0 NMat=   1 IRICut=       1 DoRegI=T DoRafI=F ISym2E= 1.
 FoFCou: FMM=F IPFlag=           0 FMFlag=      100000 FMFlg1=         800
         NFxFlg=           0 DoJE=F BraDBF=F KetDBF=F FulRan=T
         wScrn=  0.000000 ICntrl=    2127 IOpCl=  0 I1Cent=           0 NGrid=           0
         NMat0=    1 NMatS0=      1 NMatT0=    0 NMatD0=    1 NMtDS0=    0 NMtDT0=    0
 Petite list used in FoFCou.
 Leave Link  703 at Mon May 27 17:27:12 2019, MaxMem=   131072000 cpu:         0.1
 (Enter /applis/g09/l716.exe)
 Dipole        =-2.76943010D-17 0.00000000D+00-7.77405230D-01
 ***** Axes restored to original set *****
 -------------------------------------------------------------------
 Center     Atomic                   Forces (Hartrees/Bohr)
 Number     Number              X              Y              Z
 -------------------------------------------------------------------
      1        8           0.000000000    0.000000000    0.013567247
      2        1           0.000000000    0.005160347   -0.006783624
      3        1           0.000000000   -0.005160347   -0.006783624
 -------------------------------------------------------------------
 Cartesian Forces:  Max     0.013567247 RMS     0.006049460
 Leave Link  716 at Mon May 27 17:27:12 2019, MaxMem=   131072000 cpu:         0.0
 (Enter /applis/g09/l103.exe)

 GradGradGradGradGradGradGradGradGradGradGradGradGradGradGradGradGradGrad
 Berny optimization.
 FormGI is forming the generalized inverse of G from B-inverse, IUseBI=4.
 Internal  Forces:  Max     0.008225034 RMS     0.007110182
 Search for a local minimum.
 Step number   1 out of a maximum of   20
 All quantities printed in internal units (Hartrees-Bohrs-Radians)
 RMS Force = .71102D-02 SwitMx=.10000D-02 MixMth= 1
 Mixed Optimization -- RFO/linear search
 Second derivative matrix not updated -- first step.
 The second derivative matrix:
                          R1        R2        A1
           R1           0.55974
           R2           0.00000   0.55974
           A1           0.00000   0.00000   0.16000
 ITU=  0
     Eigenvalues ---    0.16000   0.55974   0.55974
 RFO step:  Lambda=-3.43616701D-04 EMin= 1.60000000D-01
 Linear search not attempted -- first point.
 Iteration  1 RMS(Cart)=  0.01288402 RMS(Int)=  0.00016588
 Iteration  2 RMS(Cart)=  0.00018781 RMS(Int)=  0.00000001
 Iteration  3 RMS(Cart)=  0.00000001 RMS(Int)=  0.00000000
 ITry= 1 IFail=0 DXMaxC= 1.81D-02 DCOld= 1.00D+10 DXMaxT= 3.00D-01 DXLimC= 3.00D+00 Rises=F
 ClnCor:  largest displacement from symmetrization is 1.29D-15 for atom     3.
 Variable       Old X    -DE/DX   Delta X   Delta X   Delta X     New X
                                 (Linear)    (Quad)   (Total)
    R1        1.80977   0.00823   0.00000   0.01469   0.01469   1.82445
    R2        1.80977   0.00823   0.00000   0.01469   0.01469   1.82445
    A1        1.83130  -0.00404   0.00000  -0.02523  -0.02523   1.80608
         Item               Value     Threshold  Converged?
 Maximum Force            0.008225     0.000450     NO 
 RMS     Force            0.007110     0.000300     NO 
 Maximum Displacement     0.018071     0.001800     NO 
 RMS     Displacement     0.012939     0.001200     NO 
 Predicted change in Energy=-1.719920D-04
 Lowest energy point so far.  Saving SCF results.
 GradGradGradGradGradGradGradGradGradGradGradGradGradGradGradGradGradGrad

 Leave Link  103 at Mon May 27 17:27:12 2019, MaxMem=   131072000 cpu:         0.0
 (Enter /applis/g09/l202.exe)
                          Input orientation:                          
 ---------------------------------------------------------------------
 Center     Atomic      Atomic             Coordinates (Angstroms)
 Number     Number       Type             X           Y           Z
 ---------------------------------------------------------------------
      1          8           0        0.000000    0.000000   -0.101441
      2          1           0        0.000000    0.758089   -0.699279
      3          1           0        0.000000   -0.758089   -0.699279
 ---------------------------------------------------------------------
                    Distance matrix (angstroms):
                    1          2          3
     1  O    0.000000
     2  H    0.965458   0.000000
     3  H    0.965458   1.516178   0.000000
 Stoichiometry    H2O
 Framework group  C2V[C2(O),SGV(H2)]
 Deg. of freedom     2
 Full point group                 C2V     NOp   4
 RotChk:  IX=0 Diff= 1.24D-15
 Largest Abelian subgroup         C2V     NOp   4
 Largest concise Abelian subgroup C2      NOp   2
                         Standard orientation:                         
 ---------------------------------------------------------------------
 Center     Atomic      Atomic             Coordinates (Angstroms)
 Number     Number       Type             X           Y           Z
 ---------------------------------------------------------------------
      1          8           0        0.000000    0.000000    0.119568
      2          1           0        0.000000    0.758089   -0.478271
      3          1           0        0.000000   -0.758089   -0.478271
 ---------------------------------------------------------------------
 Rotational constants (GHZ):    789.9146887    436.2763969    281.0501057
 Leave Link  202 at Mon May 27 17:27:12 2019, MaxMem=   131072000 cpu:         0.0
 (Enter /applis/g09/l301.exe)
 Standard basis: SVP (5D, 7F)
 Ernie: Thresh=  0.10000D-02 Tol=  0.10000D-05 Strict=F.
 There are    12 symmetry adapted cartesian basis functions of A1  symmetry.
 There are     2 symmetry adapted cartesian basis functions of A2  symmetry.
 There are     4 symmetry adapted cartesian basis functions of B1  symmetry.
 There are     7 symmetry adapted cartesian basis functions of B2  symmetry.
 There are    11 symmetry adapted basis functions of A1  symmetry.
 There are     2 symmetry adapted basis functions of A2  symmetry.
 There are     4 symmetry adapted basis functions of B1  symmetry.
 There are     7 symmetry adapted basis functions of B2  symmetry.
    24 basis functions,    39 primitive gaussians,    25 cartesian basis functions
     5 alpha electrons        5 beta electrons
       nuclear repulsion energy         9.1187800522 Hartrees.
 IExCor=  402 DFT=T Ex+Corr=B3LYP ExCW=0 ScaHFX=  0.200000
 ScaDFX=  0.800000  0.720000  1.000000  0.810000 ScalE2=  1.000000  1.000000
 IRadAn=      0 IRanWt=     -1 IRanGd=            0 ICorTp=0 IEmpDi=  4
 NAtoms=    3 NActive=    3 NUniq=    2 SFac= 2.25D+00 NAtFMM=   60 NAOKFM=F Big=F
 Integral buffers will be    131072 words long.
 Raffenetti 2 integral format.
 Two-electron integral symmetry is turned on.
 Leave Link  301 at Mon May 27 17:27:12 2019, MaxMem=   131072000 cpu:         0.0
 (Enter /applis/g09/l302.exe)
 NPDir=0 NMtPBC=     1 NCelOv=     1 NCel=       1 NClECP=     1 NCelD=      1
         NCelK=      1 NCelE2=     1 NClLst=     1 CellRange=     0.0.
 One-electron integrals computed using PRISM.
 One-electron integral symmetry used in STVInt
 NBasis=    24 RedAO= T EigKep=  5.99D-02  NBF=    11     2     4     7
 NBsUse=    24 1.00D-06 EigRej= -1.00D+00 NBFU=    11     2     4     7
 Precomputing XC quadrature grid using
 IXCGrd= 4 IRadAn=           0 IRanWt=          -1 IRanGd=           0 AccXCQ= 0.00D+00.
 Generated NRdTot=       0 NPtTot=           0 NUsed=           0 NTot=          32
 NSgBfM=    25    25    25    25    25 MxSgAt=     3 MxSgA2=     3.
 Leave Link  302 at Mon May 27 17:27:13 2019, MaxMem=   131072000 cpu:         0.1
 (Enter /applis/g09/l303.exe)
 DipDrv:  MaxL=1.
 Leave Link  303 at Mon May 27 17:27:13 2019, MaxMem=   131072000 cpu:         0.0
 (Enter /applis/g09/l401.exe)
 Initial guess from the checkpoint file:  "H2O_OPT_NOpop.chk"
 B after Tr=     0.000000    0.000000    0.000000
         Rot=    1.000000    0.000000    0.000000    0.000000 Ang=   0.00 deg.
 Guess basis will be translated and rotated to current coordinates.
 JPrj=2 DoOrth=T DoCkMO=T.
 Initial guess orbital symmetries:
       Occupied  (A1) (A1) (B2) (A1) (B1)
       Virtual   (A1) (A1) (A1) (A1) (A1) (A1) (A1) (A1) (A2) (A2)
                 (B1) (B1) (B1) (B2) (B2) (B2) (B2) (B2) (B2)
 The electronic state of the initial guess is 1-A1.
 Leave Link  401 at Mon May 27 17:27:13 2019, MaxMem=   131072000 cpu:         0.0
 (Enter /applis/g09/l502.exe)
 Closed shell SCF:
 Using DIIS extrapolation, IDIIS=  1040.
 Integral symmetry usage will be decided dynamically.
 Keep R1 ints in memory in symmetry-blocked form, NReq=926891.
 IVT=       20839 IEndB=       20839 NGot=   131072000 MDV=   131037463
 LenX=   131037463 LenY=   131036397
 Requested convergence on RMS density matrix=1.00D-08 within 128 cycles.
 Requested convergence on MAX density matrix=1.00D-06.
 Requested convergence on             energy=1.00D-06.
 No special actions if energy rises.
 FoFCou: FMM=F IPFlag=           0 FMFlag=           0 FMFlg1=           0
         NFxFlg=           0 DoJE=F BraDBF=F KetDBF=F FulRan=T
         wScrn=  0.000000 ICntrl=     600 IOpCl=  0 I1Cent=           0 NGrid=           0
         NMat0=    1 NMatS0=    300 NMatT0=    0 NMatD0=    1 NMtDS0=    0 NMtDT0=    0
 Petite list used in FoFCou.

 Cycle   1  Pass 1  IDiag  1:
 E= -76.3582355901469    
 DIIS: error= 1.21D-03 at cycle   1 NSaved=   1.
 NSaved= 1 IEnMin= 1 EnMin= -76.3582355901469     IErMin= 1 ErrMin= 1.21D-03
 ErrMax= 1.21D-03  0.00D+00 EMaxC= 1.00D-01 BMatC= 6.14D-05 BMatP= 6.14D-05
 IDIUse=3 WtCom= 9.88D-01 WtEn= 1.21D-02
 Coeff-Com:  0.100D+01
 Coeff-En:   0.100D+01
 Coeff:      0.100D+01
 Gap=     0.949 Goal=   None    Shift=    0.000
 GapD=    0.949 DampG=2.000 DampE=1.000 DampFc=2.0000 IDamp=-1.
 RMSDP=5.88D-04 MaxDP=4.42D-03              OVMax= 4.35D-03

 Cycle   2  Pass 1  IDiag  1:
 E= -76.3583024860486     Delta-E=       -0.000066895902 Rises=F Damp=F
 DIIS: error= 7.89D-04 at cycle   2 NSaved=   2.
 NSaved= 2 IEnMin= 2 EnMin= -76.3583024860486     IErMin= 2 ErrMin= 7.89D-04
 ErrMax= 7.89D-04  0.00D+00 EMaxC= 1.00D-01 BMatC= 1.01D-05 BMatP= 6.14D-05
 IDIUse=3 WtCom= 9.92D-01 WtEn= 7.89D-03
 Coeff-Com:  0.179D+00 0.821D+00
 Coeff-En:   0.000D+00 0.100D+01
 Coeff:      0.178D+00 0.822D+00
 Gap=     0.338 Goal=   None    Shift=    0.000
 RMSDP=1.46D-04 MaxDP=1.36D-03 DE=-6.69D-05 OVMax= 1.31D-03

 Cycle   3  Pass 1  IDiag  1:
 E= -76.3583036923215     Delta-E=       -0.000001206273 Rises=F Damp=F
 DIIS: error= 6.82D-04 at cycle   3 NSaved=   3.
 NSaved= 3 IEnMin= 3 EnMin= -76.3583036923215     IErMin= 3 ErrMin= 6.82D-04
 ErrMax= 6.82D-04  0.00D+00 EMaxC= 1.00D-01 BMatC= 8.34D-06 BMatP= 1.01D-05
 IDIUse=3 WtCom= 9.93D-01 WtEn= 6.82D-03
 Coeff-Com: -0.756D-02 0.477D+00 0.531D+00
 Coeff-En:   0.000D+00 0.458D+00 0.542D+00
 Coeff:     -0.750D-02 0.477D+00 0.531D+00
 Gap=     0.337 Goal=   None    Shift=    0.000
 RMSDP=8.02D-05 MaxDP=6.76D-04 DE=-1.21D-06 OVMax= 7.53D-04

 Cycle   4  Pass 1  IDiag  1:
 E= -76.3583096457005     Delta-E=       -0.000005953379 Rises=F Damp=F
 DIIS: error= 4.72D-05 at cycle   4 NSaved=   4.
 NSaved= 4 IEnMin= 4 EnMin= -76.3583096457005     IErMin= 4 ErrMin= 4.72D-05
 ErrMax= 4.72D-05  0.00D+00 EMaxC= 1.00D-01 BMatC= 5.13D-08 BMatP= 8.34D-06
 IDIUse=1 WtCom= 1.00D+00 WtEn= 0.00D+00
 Coeff-Com: -0.755D-02 0.991D-01 0.150D+00 0.758D+00
 Coeff:     -0.755D-02 0.991D-01 0.150D+00 0.758D+00
 Gap=     0.337 Goal=   None    Shift=    0.000
 RMSDP=5.43D-06 MaxDP=4.07D-05 DE=-5.95D-06 OVMax= 6.67D-05

 Cycle   5  Pass 1  IDiag  1:
 E= -76.3583096818094     Delta-E=       -0.000000036109 Rises=F Damp=F
 DIIS: error= 1.91D-06 at cycle   5 NSaved=   5.
 NSaved= 5 IEnMin= 5 EnMin= -76.3583096818094     IErMin= 5 ErrMin= 1.91D-06
 ErrMax= 1.91D-06  0.00D+00 EMaxC= 1.00D-01 BMatC= 9.31D-11 BMatP= 5.13D-08
 IDIUse=1 WtCom= 1.00D+00 WtEn= 0.00D+00
 Coeff-Com:  0.118D-03-0.737D-02-0.634D-02-0.108D-02 0.101D+01
 Coeff:      0.118D-03-0.737D-02-0.634D-02-0.108D-02 0.101D+01
 Gap=     0.337 Goal=   None    Shift=    0.000
 RMSDP=5.83D-07 MaxDP=4.27D-06 DE=-3.61D-08 OVMax= 7.14D-06

 Cycle   6  Pass 1  IDiag  1:
 E= -76.3583096819230     Delta-E=       -0.000000000114 Rises=F Damp=F
 DIIS: error= 1.79D-07 at cycle   6 NSaved=   6.
 NSaved= 6 IEnMin= 6 EnMin= -76.3583096819230     IErMin= 6 ErrMin= 1.79D-07
 ErrMax= 1.79D-07  0.00D+00 EMaxC= 1.00D-01 BMatC= 4.93D-13 BMatP= 9.31D-11
 IDIUse=1 WtCom= 1.00D+00 WtEn= 0.00D+00
 Coeff-Com:  0.332D-04-0.438D-03-0.454D-03-0.240D-02-0.811D-02 0.101D+01
 Coeff:      0.332D-04-0.438D-03-0.454D-03-0.240D-02-0.811D-02 0.101D+01
 Gap=     0.337 Goal=   None    Shift=    0.000
 RMSDP=5.07D-08 MaxDP=2.82D-07 DE=-1.14D-10 OVMax= 6.78D-07

 Cycle   7  Pass 1  IDiag  1:
 E= -76.3583096819239     Delta-E=       -0.000000000001 Rises=F Damp=F
 DIIS: error= 2.90D-08 at cycle   7 NSaved=   7.
 NSaved= 7 IEnMin= 7 EnMin= -76.3583096819239     IErMin= 7 ErrMin= 2.90D-08
 ErrMax= 2.90D-08  0.00D+00 EMaxC= 1.00D-01 BMatC= 8.10D-15 BMatP= 4.93D-13
 IDIUse=1 WtCom= 1.00D+00 WtEn= 0.00D+00
 Coeff-Com: -0.781D-06 0.565D-04 0.564D-04-0.206D-03-0.833D-02-0.301D-01
 Coeff-Com:  0.104D+01
 Coeff:     -0.781D-06 0.565D-04 0.564D-04-0.206D-03-0.833D-02-0.301D-01
 Coeff:      0.104D+01
 Gap=     0.337 Goal=   None    Shift=    0.000
 RMSDP=5.15D-09 MaxDP=3.97D-08 DE=-8.53D-13 OVMax= 5.72D-08

 SCF Done:  E(RB3LYP) =  -76.3583096819     A.U. after    7 cycles
            NFock=  7  Conv=0.51D-08     -V/T= 2.0068
 KE= 7.583895970823D+01 PE=-1.988229788788D+02 EE= 3.750692943640D+01
 Leave Link  502 at Mon May 27 17:27:13 2019, MaxMem=   131072000 cpu:         0.3
 (Enter /applis/g09/l701.exe)
 Compute integral first derivatives.
 ... and contract with generalized density number  0.
 Leave Link  701 at Mon May 27 17:27:13 2019, MaxMem=   131072000 cpu:         0.1
 (Enter /applis/g09/l702.exe)
 L702 exits ... SP integral derivatives will be done elsewhere.
 Leave Link  702 at Mon May 27 17:27:13 2019, MaxMem=   131072000 cpu:         0.0
 (Enter /applis/g09/l703.exe)
 Compute integral first derivatives, UseDBF=F ICtDFT=           0.
 Integral derivatives from FoFJK, PRISM(SPDF).
 Calling FoFJK, ICntrl=      2127 FMM=F ISym2X=1 I1Cent= 0 IOpClX= 0 NMat=1 NMatS=1 NMatT=0.
 FoFJK:  IHMeth= 1 ICntrl=    2127 DoSepK=F KAlg= 0 I1Cent=   0 FoldK=F
 IRaf=         0 NMat=   1 IRICut=       1 DoRegI=T DoRafI=F ISym2E= 1.
 FoFCou: FMM=F IPFlag=           0 FMFlag=      100000 FMFlg1=         800
         NFxFlg=           0 DoJE=F BraDBF=F KetDBF=F FulRan=T
         wScrn=  0.000000 ICntrl=    2127 IOpCl=  0 I1Cent=           0 NGrid=           0
         NMat0=    1 NMatS0=      1 NMatT0=    0 NMatD0=    1 NMtDS0=    0 NMtDT0=    0
 Petite list used in FoFCou.
 Leave Link  703 at Mon May 27 17:27:13 2019, MaxMem=   131072000 cpu:         0.1
 (Enter /applis/g09/l716.exe)
 Dipole        =-2.78873122D-17 0.00000000D+00-7.86430309D-01
 ***** Axes restored to original set *****
 -------------------------------------------------------------------
 Center     Atomic                   Forces (Hartrees/Bohr)
 Number     Number              X              Y              Z
 -------------------------------------------------------------------
      1        8           0.000000000    0.000000000    0.002097689
      2        1           0.000000000    0.000494563   -0.001048844
      3        1           0.000000000   -0.000494563   -0.001048844
 -------------------------------------------------------------------
 Cartesian Forces:  Max     0.002097689 RMS     0.000887545
 Leave Link  716 at Mon May 27 17:27:13 2019, MaxMem=   131072000 cpu:         0.0
 (Enter /applis/g09/l103.exe)

 GradGradGradGradGradGradGradGradGradGradGradGradGradGradGradGradGradGrad
 Berny optimization.
 Using GEDIIS/GDIIS optimizer.
 FormGI is forming the generalized inverse of G from B-inverse, IUseBI=4.
 Internal  Forces:  Max     0.001037810 RMS     0.001007455
 Search for a local minimum.
 Step number   2 out of a maximum of   20
 All quantities printed in internal units (Hartrees-Bohrs-Radians)
 RMS Force = .10075D-02 SwitMx=.10000D-02 MixMth= 1
 Mixed Optimization -- RFO/linear search
 Update second derivatives using D2CorX and points    1    2
 DE= -1.98D-04 DEPred=-1.72D-04 R= 1.15D+00
 TightC=F SS=  1.41D+00  RLast= 3.27D-02 DXNew= 5.0454D-01 9.8028D-02
 Trust test= 1.15D+00 RLast= 3.27D-02 DXMaxT set to 3.00D-01
 The second derivative matrix:
                          R1        R2        A1
           R1           0.54143
           R2          -0.01831   0.54143
           A1           0.01962   0.01962   0.14578
 ITU=  1  0
 Use linear search instead of GDIIS.
     Eigenvalues ---    0.14375   0.52515   0.55974
 RFO step:  Lambda=-1.25882284D-06 EMin= 1.43746624D-01
 Quartic linear search produced a step of  0.19152.
 Iteration  1 RMS(Cart)=  0.00364916 RMS(Int)=  0.00001116
 Iteration  2 RMS(Cart)=  0.00001194 RMS(Int)=  0.00000000
 Iteration  3 RMS(Cart)=  0.00000000 RMS(Int)=  0.00000000
 ITry= 1 IFail=0 DXMaxC= 4.42D-03 DCOld= 1.00D+10 DXMaxT= 3.00D-01 DXLimC= 3.00D+00 Rises=F
 ClnCor:  largest displacement from symmetrization is 2.22D-16 for atom     3.
 Variable       Old X    -DE/DX   Delta X   Delta X   Delta X     New X
                                 (Linear)    (Quad)   (Total)
    R1        1.82445   0.00104   0.00281  -0.00053   0.00229   1.82674
    R2        1.82445   0.00104   0.00281  -0.00053   0.00229   1.82674
    A1        1.80608  -0.00094  -0.00483  -0.00244  -0.00727   1.79880
         Item               Value     Threshold  Converged?
 Maximum Force            0.001038     0.000450     NO 
 RMS     Force            0.001007     0.000300     NO 
 Maximum Displacement     0.004416     0.001800     NO 
 RMS     Displacement     0.003655     0.001200     NO 
 Predicted change in Energy=-5.672554D-06
 Lowest energy point so far.  Saving SCF results.
 GradGradGradGradGradGradGradGradGradGradGradGradGradGradGradGradGradGrad

 Leave Link  103 at Mon May 27 17:27:13 2019, MaxMem=   131072000 cpu:         0.0
 (Enter /applis/g09/l202.exe)
                          Input orientation:                          
 ---------------------------------------------------------------------
 Center     Atomic      Atomic             Coordinates (Angstroms)
 Number     Number       Type             X           Y           Z
 ---------------------------------------------------------------------
      1          8           0        0.000000    0.000000   -0.099105
      2          1           0        0.000000    0.756858   -0.700448
      3          1           0        0.000000   -0.756858   -0.700448
 ---------------------------------------------------------------------
                    Distance matrix (angstroms):
                    1          2          3
     1  O    0.000000
     2  H    0.966668   0.000000
     3  H    0.966668   1.513715   0.000000
 Stoichiometry    H2O
 Framework group  C2V[C2(O),SGV(H2)]
 Deg. of freedom     2
 Full point group                 C2V     NOp   4
 RotChk:  IX=0 Diff= 3.86D-16
 Largest Abelian subgroup         C2V     NOp   4
 Largest concise Abelian subgroup C2      NOp   2
                         Standard orientation:                         
 ---------------------------------------------------------------------
 Center     Atomic      Atomic             Coordinates (Angstroms)
 Number     Number       Type             X           Y           Z
 ---------------------------------------------------------------------
      1          8           0        0.000000    0.000000    0.120269
      2          1           0        0.000000    0.756858   -0.481074
      3          1           0        0.000000   -0.756858   -0.481074
 ---------------------------------------------------------------------
 Rotational constants (GHZ):    780.7335639    437.6972435    280.4631390
 Leave Link  202 at Mon May 27 17:27:13 2019, MaxMem=   131072000 cpu:         0.0
 (Enter /applis/g09/l301.exe)
 Standard basis: SVP (5D, 7F)
 Ernie: Thresh=  0.10000D-02 Tol=  0.10000D-05 Strict=F.
 There are    12 symmetry adapted cartesian basis functions of A1  symmetry.
 There are     2 symmetry adapted cartesian basis functions of A2  symmetry.
 There are     4 symmetry adapted cartesian basis functions of B1  symmetry.
 There are     7 symmetry adapted cartesian basis functions of B2  symmetry.
 There are    11 symmetry adapted basis functions of A1  symmetry.
 There are     2 symmetry adapted basis functions of A2  symmetry.
 There are     4 symmetry adapted basis functions of B1  symmetry.
 There are     7 symmetry adapted basis functions of B2  symmetry.
    24 basis functions,    39 primitive gaussians,    25 cartesian basis functions
     5 alpha electrons        5 beta electrons
       nuclear repulsion energy         9.1083727013 Hartrees.
 IExCor=  402 DFT=T Ex+Corr=B3LYP ExCW=0 ScaHFX=  0.200000
 ScaDFX=  0.800000  0.720000  1.000000  0.810000 ScalE2=  1.000000  1.000000
 IRadAn=      0 IRanWt=     -1 IRanGd=            0 ICorTp=0 IEmpDi=  4
 NAtoms=    3 NActive=    3 NUniq=    2 SFac= 2.25D+00 NAtFMM=   60 NAOKFM=F Big=F
 Integral buffers will be    131072 words long.
 Raffenetti 2 integral format.
 Two-electron integral symmetry is turned on.
 Leave Link  301 at Mon May 27 17:27:13 2019, MaxMem=   131072000 cpu:         0.0
 (Enter /applis/g09/l302.exe)
 NPDir=0 NMtPBC=     1 NCelOv=     1 NCel=       1 NClECP=     1 NCelD=      1
         NCelK=      1 NCelE2=     1 NClLst=     1 CellRange=     0.0.
 One-electron integrals computed using PRISM.
 One-electron integral symmetry used in STVInt
 NBasis=    24 RedAO= T EigKep=  5.99D-02  NBF=    11     2     4     7
 NBsUse=    24 1.00D-06 EigRej= -1.00D+00 NBFU=    11     2     4     7
 Precomputing XC quadrature grid using
 IXCGrd= 4 IRadAn=           0 IRanWt=          -1 IRanGd=           0 AccXCQ= 0.00D+00.
 Generated NRdTot=       0 NPtTot=           0 NUsed=           0 NTot=          32
 NSgBfM=    25    25    25    25    25 MxSgAt=     3 MxSgA2=     3.
 Leave Link  302 at Mon May 27 17:27:13 2019, MaxMem=   131072000 cpu:         0.1
 (Enter /applis/g09/l303.exe)
 DipDrv:  MaxL=1.
 Leave Link  303 at Mon May 27 17:27:13 2019, MaxMem=   131072000 cpu:         0.0
 (Enter /applis/g09/l401.exe)
 Initial guess from the checkpoint file:  "H2O_OPT_NOpop.chk"
 B after Tr=     0.000000    0.000000    0.000000
         Rot=    1.000000    0.000000    0.000000    0.000000 Ang=   0.00 deg.
 Guess basis will be translated and rotated to current coordinates.
 JPrj=2 DoOrth=T DoCkMO=T.
 Initial guess orbital symmetries:
       Occupied  (A1) (A1) (B2) (A1) (B1)
       Virtual   (A1) (A1) (A1) (A1) (A1) (A1) (A1) (A1) (A2) (A2)
                 (B1) (B1) (B1) (B2) (B2) (B2) (B2) (B2) (B2)
 The electronic state of the initial guess is 1-A1.
 Leave Link  401 at Mon May 27 17:27:14 2019, MaxMem=   131072000 cpu:         0.0
 (Enter /applis/g09/l502.exe)
 Closed shell SCF:
 Using DIIS extrapolation, IDIIS=  1040.
 Integral symmetry usage will be decided dynamically.
 Keep R1 ints in memory in symmetry-blocked form, NReq=926891.
 IVT=       20839 IEndB=       20839 NGot=   131072000 MDV=   131037463
 LenX=   131037463 LenY=   131036397
 Requested convergence on RMS density matrix=1.00D-08 within 128 cycles.
 Requested convergence on MAX density matrix=1.00D-06.
 Requested convergence on             energy=1.00D-06.
 No special actions if energy rises.
 FoFCou: FMM=F IPFlag=           0 FMFlag=           0 FMFlg1=           0
         NFxFlg=           0 DoJE=F BraDBF=F KetDBF=F FulRan=T
         wScrn=  0.000000 ICntrl=     600 IOpCl=  0 I1Cent=           0 NGrid=           0
         NMat0=    1 NMatS0=    300 NMatT0=    0 NMatD0=    1 NMtDS0=    0 NMtDT0=    0
 Petite list used in FoFCou.

 Cycle   1  Pass 1  IDiag  1:
 E= -76.3583114075386    
 DIIS: error= 3.03D-04 at cycle   1 NSaved=   1.
 NSaved= 1 IEnMin= 1 EnMin= -76.3583114075386     IErMin= 1 ErrMin= 3.03D-04
 ErrMax= 3.03D-04  0.00D+00 EMaxC= 1.00D-01 BMatC= 3.12D-06 BMatP= 3.12D-06
 IDIUse=3 WtCom= 9.97D-01 WtEn= 3.03D-03
 Coeff-Com:  0.100D+01
 Coeff-En:   0.100D+01
 Coeff:      0.100D+01
 Gap=     0.950 Goal=   None    Shift=    0.000
 RMSDP=1.39D-04 MaxDP=1.01D-03              OVMax= 9.47D-04

 Cycle   2  Pass 1  IDiag  1:
 E= -76.3583150712949     Delta-E=       -0.000003663756 Rises=F Damp=F
 DIIS: error= 1.39D-04 at cycle   2 NSaved=   2.
 NSaved= 2 IEnMin= 2 EnMin= -76.3583150712949     IErMin= 2 ErrMin= 1.39D-04
 ErrMax= 1.39D-04  0.00D+00 EMaxC= 1.00D-01 BMatC= 3.18D-07 BMatP= 3.12D-06
 IDIUse=3 WtCom= 9.99D-01 WtEn= 1.39D-03
 Coeff-Com:  0.106D+00 0.894D+00
 Coeff-En:   0.000D+00 0.100D+01
 Coeff:      0.106D+00 0.894D+00
 Gap=     0.337 Goal=   None    Shift=    0.000
 RMSDP=2.79D-05 MaxDP=2.60D-04 DE=-3.66D-06 OVMax= 2.46D-04

 Cycle   3  Pass 1  IDiag  1:
 E= -76.3583150430240     Delta-E=        0.000000028271 Rises=F Damp=F
 DIIS: error= 1.42D-04 at cycle   3 NSaved=   3.
 NSaved= 3 IEnMin= 2 EnMin= -76.3583150712949     IErMin= 2 ErrMin= 1.39D-04
 ErrMax= 1.42D-04  0.00D+00 EMaxC= 1.00D-01 BMatC= 3.58D-07 BMatP= 3.18D-07
 IDIUse=3 WtCom= 4.57D-01 WtEn= 5.43D-01
 Coeff-Com: -0.167D-01 0.521D+00 0.496D+00
 Coeff-En:   0.000D+00 0.527D+00 0.473D+00
 Coeff:     -0.760D-02 0.524D+00 0.484D+00
 Gap=     0.336 Goal=   None    Shift=    0.000
 RMSDP=1.62D-05 MaxDP=1.35D-04 DE= 2.83D-08 OVMax= 1.52D-04

 Cycle   4  Pass 1  IDiag  1:
 E= -76.3583152982428     Delta-E=       -0.000000255219 Rises=F Damp=F
 DIIS: error= 8.08D-06 at cycle   4 NSaved=   4.
 NSaved= 4 IEnMin= 4 EnMin= -76.3583152982428     IErMin= 4 ErrMin= 8.08D-06
 ErrMax= 8.08D-06  0.00D+00 EMaxC= 1.00D-01 BMatC= 1.28D-09 BMatP= 3.18D-07
 IDIUse=1 WtCom= 1.00D+00 WtEn= 0.00D+00
 Coeff-Com: -0.700D-02 0.105D+00 0.125D+00 0.777D+00
 Coeff:     -0.700D-02 0.105D+00 0.125D+00 0.777D+00
 Gap=     0.336 Goal=   None    Shift=    0.000
 RMSDP=8.77D-07 MaxDP=6.52D-06 DE=-2.55D-07 OVMax= 1.10D-05

 Cycle   5  Pass 1  IDiag  1:
 E= -76.3583152991513     Delta-E=       -0.000000000908 Rises=F Damp=F
 DIIS: error= 4.27D-07 at cycle   5 NSaved=   5.
 NSaved= 5 IEnMin= 5 EnMin= -76.3583152991513     IErMin= 5 ErrMin= 4.27D-07
 ErrMax= 4.27D-07  0.00D+00 EMaxC= 1.00D-01 BMatC= 5.06D-12 BMatP= 1.28D-09
 IDIUse=1 WtCom= 1.00D+00 WtEn= 0.00D+00
 Coeff-Com:  0.109D-03-0.733D-02-0.420D-02 0.211D-01 0.990D+00
 Coeff:      0.109D-03-0.733D-02-0.420D-02 0.211D-01 0.990D+00
 Gap=     0.336 Goal=   None    Shift=    0.000
 RMSDP=1.13D-07 MaxDP=7.97D-07 DE=-9.08D-10 OVMax= 1.32D-06

 Cycle   6  Pass 1  IDiag  1:
 E= -76.3583152991564     Delta-E=       -0.000000000005 Rises=F Damp=F
 DIIS: error= 3.39D-08 at cycle   6 NSaved=   6.
 NSaved= 6 IEnMin= 6 EnMin= -76.3583152991564     IErMin= 6 ErrMin= 3.39D-08
 ErrMax= 3.39D-08  0.00D+00 EMaxC= 1.00D-01 BMatC= 1.80D-14 BMatP= 5.06D-12
 IDIUse=1 WtCom= 1.00D+00 WtEn= 0.00D+00
 Coeff-Com:  0.302D-04-0.365D-03-0.344D-03-0.323D-02-0.235D-01 0.103D+01
 Coeff:      0.302D-04-0.365D-03-0.344D-03-0.323D-02-0.235D-01 0.103D+01
 Gap=     0.336 Goal=   None    Shift=    0.000
 RMSDP=1.04D-08 MaxDP=6.17D-08 DE=-5.12D-12 OVMax= 1.46D-07

 Cycle   7  Pass 1  IDiag  1:
 E= -76.3583152991564     Delta-E=        0.000000000000 Rises=F Damp=F
 DIIS: error= 5.55D-09 at cycle   7 NSaved=   7.
 NSaved= 7 IEnMin= 7 EnMin= -76.3583152991564     IErMin= 7 ErrMin= 5.55D-09
 ErrMax= 5.55D-09  0.00D+00 EMaxC= 1.00D-01 BMatC= 2.99D-16 BMatP= 1.80D-14
 IDIUse=1 WtCom= 1.00D+00 WtEn= 0.00D+00
 Coeff-Com: -0.531D-06 0.441D-04 0.372D-04-0.319D-03-0.596D-02-0.369D-01
 Coeff-Com:  0.104D+01
 Coeff:     -0.531D-06 0.441D-04 0.372D-04-0.319D-03-0.596D-02-0.369D-01
 Coeff:      0.104D+01
 Gap=     0.336 Goal=   None    Shift=    0.000
 RMSDP=9.73D-10 MaxDP=7.46D-09 DE=-2.84D-14 OVMax= 1.09D-08

 SCF Done:  E(RB3LYP) =  -76.3583152992     A.U. after    7 cycles
            NFock=  7  Conv=0.97D-09     -V/T= 2.0069
 KE= 7.583633330556D+01 PE=-1.988004508376D+02 EE= 3.749742953155D+01
 Leave Link  502 at Mon May 27 17:27:14 2019, MaxMem=   131072000 cpu:         0.3
 (Enter /applis/g09/l701.exe)
 Compute integral first derivatives.
 ... and contract with generalized density number  0.
 Leave Link  701 at Mon May 27 17:27:14 2019, MaxMem=   131072000 cpu:         0.1
 (Enter /applis/g09/l702.exe)
 L702 exits ... SP integral derivatives will be done elsewhere.
 Leave Link  702 at Mon May 27 17:27:14 2019, MaxMem=   131072000 cpu:         0.0
 (Enter /applis/g09/l703.exe)
 Compute integral first derivatives, UseDBF=F ICtDFT=           0.
 Integral derivatives from FoFJK, PRISM(SPDF).
 Calling FoFJK, ICntrl=      2127 FMM=F ISym2X=1 I1Cent= 0 IOpClX= 0 NMat=1 NMatS=1 NMatT=0.
 FoFJK:  IHMeth= 1 ICntrl=    2127 DoSepK=F KAlg= 0 I1Cent=   0 FoldK=F
 IRaf=         0 NMat=   1 IRICut=       1 DoRegI=T DoRafI=F ISym2E= 1.
 FoFCou: FMM=F IPFlag=           0 FMFlag=      100000 FMFlg1=         800
         NFxFlg=           0 DoJE=F BraDBF=F KetDBF=F FulRan=T
         wScrn=  0.000000 ICntrl=    2127 IOpCl=  0 I1Cent=           0 NGrid=           0
         NMat0=    1 NMatS0=      1 NMatT0=    0 NMatD0=    1 NMtDS0=    0 NMtDT0=    0
 Petite list used in FoFCou.
 Leave Link  703 at Mon May 27 17:27:14 2019, MaxMem=   131072000 cpu:         0.1
 (Enter /applis/g09/l716.exe)
 Dipole        =-2.78440032D-17 0.00000000D+00-7.88792247D-01
 ***** Axes restored to original set *****
 -------------------------------------------------------------------
 Center     Atomic                   Forces (Hartrees/Bohr)
 Number     Number              X              Y              Z
 -------------------------------------------------------------------
      1        8           0.000000000    0.000000000   -0.000001026
      2        1           0.000000000    0.000078887    0.000000513
      3        1           0.000000000   -0.000078887    0.000000513
 -------------------------------------------------------------------
 Cartesian Forces:  Max     0.000078887 RMS     0.000037190
 Leave Link  716 at Mon May 27 17:27:14 2019, MaxMem=   131072000 cpu:         0.0
 (Enter /applis/g09/l103.exe)

 GradGradGradGradGradGradGradGradGradGradGradGradGradGradGradGradGradGrad
 Berny optimization.
 Using GEDIIS/GDIIS optimizer.
 FormGI is forming the generalized inverse of G from B-inverse, IUseBI=4.
 Internal  Forces:  Max     0.000090379 RMS     0.000072387
 Search for a local minimum.
 Step number   3 out of a maximum of   20
 All quantities printed in internal units (Hartrees-Bohrs-Radians)
 RMS Force = .72387D-04 SwitMx=.10000D-02 MixMth= 2
 Mixed Optimization -- En-DIIS/RFO-DIIS
 Update second derivatives using D2CorX and points    1    2    3
 DE= -5.62D-06 DEPred=-5.67D-06 R= 9.90D-01
 TightC=F SS=  1.41D+00  RLast= 7.96D-03 DXNew= 5.0454D-01 2.3874D-02
 Trust test= 9.90D-01 RLast= 7.96D-03 DXMaxT set to 3.00D-01
 The second derivative matrix:
                          R1        R2        A1
           R1           0.52659
           R2          -0.03315   0.52659
           A1           0.02086   0.02086   0.15534
 ITU=  1  1  0
 Use linear search instead of GDIIS.
     Eigenvalues ---    0.15279   0.49600   0.55974
 RFO step:  Lambda=-5.07265250D-08 EMin= 1.52786535D-01
 Quartic linear search produced a step of -0.03138.
 Iteration  1 RMS(Cart)=  0.00035824 RMS(Int)=  0.00000006
 Iteration  2 RMS(Cart)=  0.00000004 RMS(Int)=  0.00000000
 ITry= 1 IFail=0 DXMaxC= 3.94D-04 DCOld= 1.00D+10 DXMaxT= 3.00D-01 DXLimC= 3.00D+00 Rises=F
 ClnCor:  largest displacement from symmetrization is 4.97D-16 for atom     3.
 Variable       Old X    -DE/DX   Delta X   Delta X   Delta X     New X
                                 (Linear)    (Quad)   (Total)
    R1        1.82674   0.00006  -0.00007   0.00017   0.00010   1.82684
    R2        1.82674   0.00006  -0.00007   0.00017   0.00010   1.82684
    A1        1.79880   0.00009   0.00023   0.00033   0.00055   1.79936
         Item               Value     Threshold  Converged?
 Maximum Force            0.000090     0.000450     YES
 RMS     Force            0.000072     0.000300     YES
 Maximum Displacement     0.000394     0.001800     YES
 RMS     Displacement     0.000358     0.001200     YES
 Predicted change in Energy=-3.127507D-08
 Optimization completed.
    -- Stationary point found.
                           ----------------------------
                           !   Optimized Parameters   !
                           ! (Angstroms and Degrees)  !
 --------------------------                            --------------------------
 ! Name  Definition              Value          Derivative Info.                !
 --------------------------------------------------------------------------------
 ! R1    R(1,2)                  0.9667         -DE/DX =    0.0001              !
 ! R2    R(1,3)                  0.9667         -DE/DX =    0.0001              !
 ! A1    A(2,1,3)              103.0639         -DE/DX =    0.0001              !
 --------------------------------------------------------------------------------
 Lowest energy point so far.  Saving SCF results.
 GradGradGradGradGradGradGradGradGradGradGradGradGradGradGradGradGradGrad

 Largest change from initial coordinates is atom    2       0.015 Angstoms.
 Leave Link  103 at Mon May 27 17:27:14 2019, MaxMem=   131072000 cpu:         0.0
 (Enter /applis/g09/l202.exe)
                          Input orientation:                          
 ---------------------------------------------------------------------
 Center     Atomic      Atomic             Coordinates (Angstroms)
 Number     Number       Type             X           Y           Z
 ---------------------------------------------------------------------
      1          8           0        0.000000    0.000000   -0.099105
      2          1           0        0.000000    0.756858   -0.700448
      3          1           0        0.000000   -0.756858   -0.700448
 ---------------------------------------------------------------------
                    Distance matrix (angstroms):
                    1          2          3
     1  O    0.000000
     2  H    0.966668   0.000000
     3  H    0.966668   1.513715   0.000000
 Stoichiometry    H2O
 Framework group  C2V[C2(O),SGV(H2)]
 Deg. of freedom     2
 Full point group                 C2V     NOp   4
 RotChk:  IX=0 Diff= 5.89D-16
 Largest Abelian subgroup         C2V     NOp   4
 Largest concise Abelian subgroup C2      NOp   2
                         Standard orientation:                         
 ---------------------------------------------------------------------
 Center     Atomic      Atomic             Coordinates (Angstroms)
 Number     Number       Type             X           Y           Z
 ---------------------------------------------------------------------
      1          8           0        0.000000    0.000000    0.120269
      2          1           0        0.000000    0.756858   -0.481074
      3          1           0        0.000000   -0.756858   -0.481074
 ---------------------------------------------------------------------
 Rotational constants (GHZ):    780.7335639    437.6972435    280.4631390
 Leave Link  202 at Mon May 27 17:27:14 2019, MaxMem=   131072000 cpu:         0.0
 (Enter /applis/g09/l601.exe)
 Copying SCF densities to generalized density rwf, IOpCl= 0 IROHF=0.

 **********************************************************************

            Population analysis using the SCF density.

 **********************************************************************

 Orbital symmetries:
       Occupied  (A1) (A1) (B2) (A1) (B1)
       Virtual   (A1) (B2) (B2) (A1) (A1) (B1) (B2) (A1) (A2) (A1)
                 (B1) (B2) (B2) (A1) (B1) (A2) (A1) (A1) (B2)
 The electronic state is 1-A1.
 Alpha  occ. eigenvalues --  -19.11967  -0.97984  -0.51157  -0.36797  -0.29168
 Alpha virt. eigenvalues --    0.04480   0.12390   0.55503   0.62063   0.91736
 Alpha virt. eigenvalues --    0.92034   1.00687   1.09520   1.34777   1.39500
 Alpha virt. eigenvalues --    1.54203   1.78687   2.19880   2.24605   2.96066
 Alpha virt. eigenvalues --    2.99658   3.18485   3.48336   3.82062
          Condensed to atoms (all electrons):
               1          2          3
     1  O    7.645937   0.324230   0.324230
     2  H    0.324230   0.561574  -0.033002
     3  H    0.324230  -0.033002   0.561574
 Mulliken charges:
               1
     1  O   -0.294397
     2  H    0.147199
     3  H    0.147199
 Sum of Mulliken charges =   0.00000
 Mulliken charges with hydrogens summed into heavy atoms:
               1
     1  O    0.000000
 Electronic spatial extent (au):  <R**2>=             19.0144
 Charge=              0.0000 electrons
 Dipole moment (field-independent basis, Debye):
    X=              0.0000    Y=              0.0000    Z=             -2.0049  Tot=              2.0049
 Quadrupole moment (field-independent basis, Debye-Ang):
   XX=             -7.0031   YY=             -4.3537   ZZ=             -5.9364
   XY=              0.0000   XZ=              0.0000   YZ=              0.0000
 Traceless Quadrupole moment (field-independent basis, Debye-Ang):
   XX=             -1.2387   YY=              1.4107   ZZ=             -0.1720
   XY=              0.0000   XZ=              0.0000   YZ=              0.0000
 Octapole moment (field-independent basis, Debye-Ang**2):
  XXX=              0.0000  YYY=              0.0000  ZZZ=             -1.0659  XYY=              0.0000
  XXY=              0.0000  XXZ=             -0.2769  XZZ=              0.0000  YZZ=              0.0000
  YYZ=             -1.1065  XYZ=              0.0000
 Hexadecapole moment (field-independent basis, Debye-Ang**3):
 XXXX=             -4.8417 YYYY=             -6.2007 ZZZZ=             -6.1593 XXXY=              0.0000
 XXXZ=              0.0000 YYYX=              0.0000 YYYZ=              0.0000 ZZZX=              0.0000
 ZZZY=              0.0000 XXYY=             -2.0917 XXZZ=             -1.8883 YYZZ=             -1.7271
 XXYZ=              0.0000 YYXZ=              0.0000 ZZXY=              0.0000
 N-N= 9.108372701295D+00 E-N=-1.988004509174D+02  KE= 7.583633330556D+01
 Symmetry A1   KE= 6.766486789596D+01
 Symmetry A2   KE= 9.006522035674D-35
 Symmetry B1   KE= 4.631309264715D+00
 Symmetry B2   KE= 3.540156144880D+00
 No NMR shielding tensors so no spin-rotation constants.
 Leave Link  601 at Mon May 27 17:27:14 2019, MaxMem=   131072000 cpu:         0.1
 (Enter /applis/g09/l9999.exe)
 1\1\GINC-MOLTECH-CALC0\FOpt\RB3LYP\SVP\H2O1\TCAUCHY\27-May-2019\0\\#P 
 OPT B3LYP svp Direct gfprint\\OPT H20 B3LYP 6-31G*\\0,1\O,0.,0.,-0.099
 1046248\H,0.,0.7568575068,-0.7004476876\H,0.,-0.7568575068,-0.70044768
 76\\Version=EM64L-G09RevD.01\State=1-A1\HF=-76.3583153\RMSD=9.728e-10\
 RMSF=3.719e-05\Dipole=0.,0.,-0.7887922\Quadrupole=-0.9209341,1.0488192
 ,-0.1278851,0.,0.,0.\PG=C02V [C2(O1),SGV(H2)]\\@


 CONFIDENCE IS WHAT YOU FEEL BEFORE YOU FULLY
 COMPREHEND THE SITUATION.
 Job cpu time:       0 days  0 hours  0 minutes  2.8 seconds.
 File lengths (MBytes):  RWF=      5 Int=      0 D2E=      0 Chk=      1 Scr=      1
 Normal termination of Gaussian 09 at Mon May 27 17:27:14 2019.
