 Entering Gaussian System, Link 0=g09
 Input=H2O_SPplus.inp
 Output=H2O_SPplus.log
 Initial command:
 /applis/g09/l1.exe "/tmp/Gau-12142.inp" -scrdir="/tmp/"
 Entering Link 1 = /applis/g09/l1.exe PID=     12144.
  
 Copyright (c) 1988,1990,1992,1993,1995,1998,2003,2009,2013,
            Gaussian, Inc.  All Rights Reserved.
  
 This is part of the Gaussian(R) 09 program.  It is based on
 the Gaussian(R) 03 system (copyright 2003, Gaussian, Inc.),
 the Gaussian(R) 98 system (copyright 1998, Gaussian, Inc.),
 the Gaussian(R) 94 system (copyright 1995, Gaussian, Inc.),
 the Gaussian 92(TM) system (copyright 1992, Gaussian, Inc.),
 the Gaussian 90(TM) system (copyright 1990, Gaussian, Inc.),
 the Gaussian 88(TM) system (copyright 1988, Gaussian, Inc.),
 the Gaussian 86(TM) system (copyright 1986, Carnegie Mellon
 University), and the Gaussian 82(TM) system (copyright 1983,
 Carnegie Mellon University). Gaussian is a federally registered
 trademark of Gaussian, Inc.
  
 This software contains proprietary and confidential information,
 including trade secrets, belonging to Gaussian, Inc.
  
 This software is provided under written license and may be
 used, copied, transmitted, or stored only in accord with that
 written license.
  
 The following legend is applicable only to US Government
 contracts under FAR:
  
                    RESTRICTED RIGHTS LEGEND
  
 Use, reproduction and disclosure by the US Government is
 subject to restrictions as set forth in subparagraphs (a)
 and (c) of the Commercial Computer Software - Restricted
 Rights clause in FAR 52.227-19.
  
 Gaussian, Inc.
 340 Quinnipiac St., Bldg. 40, Wallingford CT 06492
  
  
 ---------------------------------------------------------------
 Warning -- This program may not be used in any manner that
 competes with the business of Gaussian, Inc. or will provide
 assistance to any competitor of Gaussian, Inc.  The licensee
 of this program is prohibited from giving any competitor of
 Gaussian, Inc. access to this program.  By using this program,
 the user acknowledges that Gaussian, Inc. is engaged in the
 business of creating and licensing software in the field of
 computational chemistry and represents and warrants to the
 licensee that it is not a competitor of Gaussian, Inc. and that
 it will not use this program in any manner prohibited above.
 ---------------------------------------------------------------
  

 Cite this work as:
 Gaussian 09, Revision D.01,
 M. J. Frisch, G. W. Trucks, H. B. Schlegel, G. E. Scuseria, 
 M. A. Robb, J. R. Cheeseman, G. Scalmani, V. Barone, B. Mennucci, 
 G. A. Petersson, H. Nakatsuji, M. Caricato, X. Li, H. P. Hratchian, 
 A. F. Izmaylov, J. Bloino, G. Zheng, J. L. Sonnenberg, M. Hada, 
 M. Ehara, K. Toyota, R. Fukuda, J. Hasegawa, M. Ishida, T. Nakajima, 
 Y. Honda, O. Kitao, H. Nakai, T. Vreven, J. A. Montgomery, Jr., 
 J. E. Peralta, F. Ogliaro, M. Bearpark, J. J. Heyd, E. Brothers, 
 K. N. Kudin, V. N. Staroverov, T. Keith, R. Kobayashi, J. Normand, 
 K. Raghavachari, A. Rendell, J. C. Burant, S. S. Iyengar, J. Tomasi, 
 M. Cossi, N. Rega, J. M. Millam, M. Klene, J. E. Knox, J. B. Cross, 
 V. Bakken, C. Adamo, J. Jaramillo, R. Gomperts, R. E. Stratmann, 
 O. Yazyev, A. J. Austin, R. Cammi, C. Pomelli, J. W. Ochterski, 
 R. L. Martin, K. Morokuma, V. G. Zakrzewski, G. A. Voth, 
 P. Salvador, J. J. Dannenberg, S. Dapprich, A. D. Daniels, 
 O. Farkas, J. B. Foresman, J. V. Ortiz, J. Cioslowski, 
 and D. J. Fox, Gaussian, Inc., Wallingford CT, 2013.
 
 ******************************************
 Gaussian 09:  EM64L-G09RevD.01 24-Apr-2013
                27-May-2019 
 ******************************************
 %Chk=SPplus
 %nprocshared=1
 Will use up to    1 processors via shared memory.
 %mem=1000MB
 ------------------------------------------------------------------
 #P B3LYP SP 6-31G* guess=read geom=check Direct gfprint pop=(full)
 ------------------------------------------------------------------
 1/29=2,38=1/1;
 2/12=2,40=1/2;
 3/5=1,6=6,7=1,11=2,14=-4,16=1,24=100,25=1,30=1,74=-5,116=-2/1,2,3;
 4/5=1/1;
 5/5=2,38=6/2;
 6/7=3,28=1/1;
 99/5=1,9=1/99;
 Leave Link    1 at Mon May 27 17:20:23 2019, MaxMem=   131072000 cpu:         0.0
 (Enter /applis/g09/l101.exe)
 --------------------
 OPT H20 B3LYP 6-31G*
 --------------------
 Structure from the checkpoint file:  "SPplus.chk"
 Charge =  1 Multiplicity = 2
 Redundant internal coordinates found in file.
 O,0,0.,0.,-0.1006369329
 H,0,0.,0.7612827676,-0.6996815335
 H,0,0.,-0.7612827676,-0.6996815335
 Recover connectivity data from disk.
 NAtoms=      3 NQM=        3 NQMF=       0 NMMI=      0 NMMIF=      0
                NMic=       0 NMicF=      0.
                    Isotopes and Nuclear Properties:
 (Nuclear quadrupole moments (NQMom) in fm**2, nuclear magnetic moments (NMagM)
  in nuclear magnetons)

  Atom         1           2           3
 IAtWgt=          16           1           1
 AtmWgt=  15.9949146   1.0078250   1.0078250
 NucSpn=           0           1           1
 AtZEff=  -5.6000000  -1.0000000  -1.0000000
 NQMom=    0.0000000   0.0000000   0.0000000
 NMagM=    0.0000000   2.7928460   2.7928460
 AtZNuc=   8.0000000   1.0000000   1.0000000
 Leave Link  101 at Mon May 27 17:20:23 2019, MaxMem=   131072000 cpu:         0.1
 (Enter /applis/g09/l202.exe)
                          Input orientation:                          
 ---------------------------------------------------------------------
 Center     Atomic      Atomic             Coordinates (Angstroms)
 Number     Number       Type             X           Y           Z
 ---------------------------------------------------------------------
      1          8           0        0.000000    0.000000   -0.100637
      2          1           0        0.000000    0.761283   -0.699682
      3          1           0        0.000000   -0.761283   -0.699682
 ---------------------------------------------------------------------
                    Distance matrix (angstroms):
                    1          2          3
     1  O    0.000000
     2  H    0.968714   0.000000
     3  H    0.968714   1.522566   0.000000
 Stoichiometry    H2O(1+,2)
 Framework group  C2V[C2(O),SGV(H2)]
 Deg. of freedom     2
 Full point group                 C2V     NOp   4
 RotChk:  IX=0 Diff= 3.87D-16
 Largest Abelian subgroup         C2V     NOp   4
 Largest concise Abelian subgroup C2      NOp   2
                         Standard orientation:                         
 ---------------------------------------------------------------------
 Center     Atomic      Atomic             Coordinates (Angstroms)
 Number     Number       Type             X           Y           Z
 ---------------------------------------------------------------------
      1          8           0        0.000000    0.000000    0.119809
      2          1           0        0.000000    0.761283   -0.479236
      3          1           0        0.000000   -0.761283   -0.479236
 ---------------------------------------------------------------------
 Rotational constants (GHZ):    786.7362194    432.6234524    279.1305529
 Leave Link  202 at Mon May 27 17:20:23 2019, MaxMem=   131072000 cpu:         0.0
 (Enter /applis/g09/l301.exe)
 Standard basis: 6-31G(d) (6D, 7F)
 Ernie: Thresh=  0.10000D-02 Tol=  0.10000D-05 Strict=F.
 AO basis set (Overlap normalization):
 Atom O1       Shell     1 S   6     bf    1 -     1          0.000000000000          0.000000000000          0.226406047306
      0.5484671660D+04  0.1831074430D-02
      0.8252349460D+03  0.1395017220D-01
      0.1880469580D+03  0.6844507810D-01
      0.5296450000D+02  0.2327143360D+00
      0.1689757040D+02  0.4701928980D+00
      0.5799635340D+01  0.3585208530D+00
 Atom O1       Shell     2 SP   3    bf    2 -     5          0.000000000000          0.000000000000          0.226406047306
      0.1553961625D+02 -0.1107775495D+00  0.7087426823D-01
      0.3599933586D+01 -0.1480262627D+00  0.3397528391D+00
      0.1013761750D+01  0.1130767015D+01  0.7271585773D+00
 Atom O1       Shell     3 SP   1    bf    6 -     9          0.000000000000          0.000000000000          0.226406047306
      0.2700058226D+00  0.1000000000D+01  0.1000000000D+01
 Atom O1       Shell     4 D   1     bf   10 -    15          0.000000000000          0.000000000000          0.226406047306
      0.8000000000D+00  0.1000000000D+01
 Atom H2       Shell     5 S   3     bf   16 -    16          0.000000000000          1.438615940459         -0.905624189222
      0.1873113696D+02  0.3349460434D-01
      0.2825394365D+01  0.2347269535D+00
      0.6401216923D+00  0.8137573261D+00
 Atom H2       Shell     6 S   1     bf   17 -    17          0.000000000000          1.438615940459         -0.905624189222
      0.1612777588D+00  0.1000000000D+01
 Atom H3       Shell     7 S   3     bf   18 -    18          0.000000000000         -1.438615940459         -0.905624189222
      0.1873113696D+02  0.3349460434D-01
      0.2825394365D+01  0.2347269535D+00
      0.6401216923D+00  0.8137573261D+00
 Atom H3       Shell     8 S   1     bf   19 -    19          0.000000000000         -1.438615940459         -0.905624189222
      0.1612777588D+00  0.1000000000D+01
 There are    10 symmetry adapted cartesian basis functions of A1  symmetry.
 There are     1 symmetry adapted cartesian basis functions of A2  symmetry.
 There are     3 symmetry adapted cartesian basis functions of B1  symmetry.
 There are     5 symmetry adapted cartesian basis functions of B2  symmetry.
 There are    10 symmetry adapted basis functions of A1  symmetry.
 There are     1 symmetry adapted basis functions of A2  symmetry.
 There are     3 symmetry adapted basis functions of B1  symmetry.
 There are     5 symmetry adapted basis functions of B2  symmetry.
    19 basis functions,    36 primitive gaussians,    19 cartesian basis functions
     5 alpha electrons        4 beta electrons
       nuclear repulsion energy         9.0878444568 Hartrees.
 IExCor=  402 DFT=T Ex+Corr=B3LYP ExCW=0 ScaHFX=  0.200000
 ScaDFX=  0.800000  0.720000  1.000000  0.810000 ScalE2=  1.000000  1.000000
 IRadAn=      0 IRanWt=     -1 IRanGd=            0 ICorTp=0 IEmpDi=  4
 NAtoms=    3 NActive=    3 NUniq=    2 SFac= 2.25D+00 NAtFMM=   60 NAOKFM=F Big=F
 Integral buffers will be    131072 words long.
 Raffenetti 2 integral format.
 Two-electron integral symmetry is turned on.
 Leave Link  301 at Mon May 27 17:20:23 2019, MaxMem=   131072000 cpu:         0.0
 (Enter /applis/g09/l302.exe)
 NPDir=0 NMtPBC=     1 NCelOv=     1 NCel=       1 NClECP=     1 NCelD=      1
         NCelK=      1 NCelE2=     1 NClLst=     1 CellRange=     0.0.
 One-electron integrals computed using PRISM.
 One-electron integral symmetry used in STVInt
 NBasis=    19 RedAO= T EigKep=  4.23D-02  NBF=    10     1     3     5
 NBsUse=    19 1.00D-06 EigRej= -1.00D+00 NBFU=    10     1     3     5
 Precomputing XC quadrature grid using
 IXCGrd= 4 IRadAn=           0 IRanWt=          -1 IRanGd=           0 AccXCQ= 0.00D+00.
 Generated NRdTot=       0 NPtTot=           0 NUsed=           0 NTot=          32
 NSgBfM=    19    19    19    19    19 MxSgAt=     3 MxSgA2=     3.
 Leave Link  302 at Mon May 27 17:20:23 2019, MaxMem=   131072000 cpu:         0.1
 (Enter /applis/g09/l303.exe)
 DipDrv:  MaxL=1.
 Leave Link  303 at Mon May 27 17:20:23 2019, MaxMem=   131072000 cpu:         0.0
 (Enter /applis/g09/l401.exe)
 Initial guess from the checkpoint file:  "SPplus.chk"
 B after Tr=     0.000000    0.000000    0.000000
         Rot=    1.000000    0.000000    0.000000    0.000000 Ang=   0.00 deg.
 Guess basis will be translated and rotated to current coordinates.
 JPrj=2 DoOrth=T DoCkMO=T.
 Initial guess orbital symmetries:
 Alpha Orbitals:
       Occupied  (A1) (A1) (B2) (A1) (B1)
       Virtual   (A1) (B2) (B2) (A1) (B1) (A1) (B2) (A1) (A1) (A2)
                 (B1) (A1) (B2) (A1)
 Beta  Orbitals:
       Occupied  (A1) (A1) (B2) (A1)
       Virtual   (B1) (A1) (B2) (B2) (A1) (B1) (A1) (B2) (A1) (A1)
                 (A2) (B1) (A1) (B2) (A1)
 The electronic state of the initial guess is 2-B1.
 Initial guess <Sx>= 0.0000 <Sy>= 0.0000 <Sz>= 0.5000 <S**2>= 0.7500 S= 0.5000
 Leave Link  401 at Mon May 27 17:20:23 2019, MaxMem=   131072000 cpu:         0.1
 (Enter /applis/g09/l502.exe)
 UHF open shell SCF:
 Using DIIS extrapolation, IDIIS=  1040.
 Integral symmetry usage will be decided dynamically.
 Keep R1 and R2 ints in memory in symmetry-blocked form, NReq=898557.
 IVT=       20213 IEndB=       20213 NGot=   131072000 MDV=   131040029
 LenX=   131040029 LenY=   131039147
 Requested convergence on RMS density matrix=1.00D-08 within 128 cycles.
 Requested convergence on MAX density matrix=1.00D-06.
 Requested convergence on             energy=1.00D-06.
 No special actions if energy rises.
 FoFCou: FMM=F IPFlag=           0 FMFlag=           0 FMFlg1=           0
         NFxFlg=           0 DoJE=F BraDBF=F KetDBF=F FulRan=T
         wScrn=  0.000000 ICntrl=     600 IOpCl=  0 I1Cent=           0 NGrid=           0
         NMat0=    1 NMatS0=    190 NMatT0=    0 NMatD0=    1 NMtDS0=    0 NMtDT0=    0
 Petite list used in FoFCou.

 Cycle   1  Pass 1  IDiag  1:
 E= -75.8560598400562    
 DIIS: error= 1.03D-01 at cycle   1 NSaved=   1.
 NSaved= 1 IEnMin= 1 EnMin= -75.8560598400562     IErMin= 1 ErrMin= 1.03D-01
 ErrMax= 1.03D-01  0.00D+00 EMaxC= 1.00D-01 BMatC= 4.74D-01 BMatP= 4.74D-01
 IDIUse=3 WtCom= 0.00D+00 WtEn= 1.00D+00
 Coeff-Com:  0.100D+01
 Coeff-En:   0.100D+01
 Coeff:      0.100D+01
 Gap=     0.707 Goal=   None    Shift=    0.000
 Gap=     0.200 Goal=   None    Shift=    0.000
 GapD=    0.200 DampG=1.000 DampE=0.250 DampFc=0.2500 IDamp=-1.
 Damping current iteration by 2.50D-01
 RMSDP=2.52D-02 MaxDP=2.00D-01              OVMax= 1.97D-01

 Cycle   2  Pass 1  IDiag  1:
 E= -75.8928073649529     Delta-E=       -0.036747524897 Rises=F Damp=T
 DIIS: error= 5.48D-02 at cycle   2 NSaved=   2.
 NSaved= 2 IEnMin= 2 EnMin= -75.8928073649529     IErMin= 2 ErrMin= 5.48D-02
 ErrMax= 5.48D-02  0.00D+00 EMaxC= 1.00D-01 BMatC= 1.15D-01 BMatP= 4.74D-01
 IDIUse=3 WtCom= 4.52D-01 WtEn= 5.48D-01
 Coeff-Com: -0.913D+00 0.191D+01
 Coeff-En:   0.000D+00 0.100D+01
 Coeff:     -0.413D+00 0.141D+01
 Gap=     0.624 Goal=   None    Shift=    0.000
 Gap=     0.224 Goal=   None    Shift=    0.000
 RMSDP=1.22D-02 MaxDP=8.95D-02 DE=-3.67D-02 OVMax= 7.05D-02

 Cycle   3  Pass 1  IDiag  1:
 E= -75.9459993613912     Delta-E=       -0.053191996438 Rises=F Damp=F
 DIIS: error= 2.99D-02 at cycle   3 NSaved=   3.
 NSaved= 3 IEnMin= 3 EnMin= -75.9459993613912     IErMin= 3 ErrMin= 2.99D-02
 ErrMax= 2.99D-02  0.00D+00 EMaxC= 1.00D-01 BMatC= 4.71D-02 BMatP= 1.15D-01
 IDIUse=3 WtCom= 7.01D-01 WtEn= 2.99D-01
 Coeff-Com:  0.136D+01-0.186D+01 0.150D+01
 Coeff-En:   0.000D+00 0.000D+00 0.100D+01
 Coeff:      0.951D+00-0.130D+01 0.135D+01
 Gap=     0.579 Goal=   None    Shift=    0.000
 Gap=     0.230 Goal=   None    Shift=    0.000
 RMSDP=4.41D-03 MaxDP=4.29D-02 DE=-5.32D-02 OVMax= 4.16D-02

 Cycle   4  Pass 1  IDiag  1:
 E= -75.9534382536972     Delta-E=       -0.007438892306 Rises=F Damp=F
 DIIS: error= 1.06D-02 at cycle   4 NSaved=   4.
 NSaved= 4 IEnMin= 4 EnMin= -75.9534382536972     IErMin= 4 ErrMin= 1.06D-02
 ErrMax= 1.06D-02  0.00D+00 EMaxC= 1.00D-01 BMatC= 6.25D-03 BMatP= 4.71D-02
 IDIUse=3 WtCom= 8.94D-01 WtEn= 1.06D-01
 Coeff-Com: -0.915D-01 0.110D+00 0.173D+00 0.809D+00
 Coeff-En:   0.000D+00 0.000D+00 0.449D-01 0.955D+00
 Coeff:     -0.818D-01 0.987D-01 0.159D+00 0.824D+00
 Gap=     0.593 Goal=   None    Shift=    0.000
 Gap=     0.229 Goal=   None    Shift=    0.000
 RMSDP=1.30D-03 MaxDP=1.22D-02 DE=-7.44D-03 OVMax= 1.16D-02

 Cycle   5  Pass 1  IDiag  1:
 E= -75.9545605045796     Delta-E=       -0.001122250882 Rises=F Damp=F
 DIIS: error= 1.21D-03 at cycle   5 NSaved=   5.
 NSaved= 5 IEnMin= 5 EnMin= -75.9545605045796     IErMin= 5 ErrMin= 1.21D-03
 ErrMax= 1.21D-03  0.00D+00 EMaxC= 1.00D-01 BMatC= 6.18D-05 BMatP= 6.25D-03
 IDIUse=3 WtCom= 9.88D-01 WtEn= 1.21D-02
 Coeff-Com:  0.439D-01-0.597D-01-0.665D-01-0.192D+00 0.127D+01
 Coeff-En:   0.000D+00 0.000D+00 0.000D+00 0.000D+00 0.100D+01
 Coeff:      0.433D-01-0.589D-01-0.657D-01-0.190D+00 0.127D+01
 Gap=     0.592 Goal=   None    Shift=    0.000
 Gap=     0.229 Goal=   None    Shift=    0.000
 RMSDP=1.40D-04 MaxDP=1.72D-03 DE=-1.12D-03 OVMax= 1.82D-03

 Cycle   6  Pass 1  IDiag  1:
 E= -75.9545727890252     Delta-E=       -0.000012284446 Rises=F Damp=F
 DIIS: error= 9.16D-05 at cycle   6 NSaved=   6.
 NSaved= 6 IEnMin= 6 EnMin= -75.9545727890252     IErMin= 6 ErrMin= 9.16D-05
 ErrMax= 9.16D-05  0.00D+00 EMaxC= 1.00D-01 BMatC= 3.02D-07 BMatP= 6.18D-05
 IDIUse=1 WtCom= 1.00D+00 WtEn= 0.00D+00
 Coeff-Com: -0.423D-02 0.652D-02-0.117D-02-0.116D-01-0.117D+00 0.113D+01
 Coeff:     -0.423D-02 0.652D-02-0.117D-02-0.116D-01-0.117D+00 0.113D+01
 Gap=     0.593 Goal=   None    Shift=    0.000
 Gap=     0.229 Goal=   None    Shift=    0.000
 RMSDP=1.41D-05 MaxDP=1.75D-04 DE=-1.23D-05 OVMax= 1.89D-04

 Cycle   7  Pass 1  IDiag  1:
 E= -75.9545728697885     Delta-E=       -0.000000080763 Rises=F Damp=F
 DIIS: error= 1.15D-05 at cycle   7 NSaved=   7.
 NSaved= 7 IEnMin= 7 EnMin= -75.9545728697885     IErMin= 7 ErrMin= 1.15D-05
 ErrMax= 1.15D-05  0.00D+00 EMaxC= 1.00D-01 BMatC= 7.01D-09 BMatP= 3.02D-07
 IDIUse=1 WtCom= 1.00D+00 WtEn= 0.00D+00
 Coeff-Com: -0.102D-02 0.140D-02 0.207D-02 0.490D-02-0.466D-01 0.425D-01
 Coeff-Com:  0.997D+00
 Coeff:     -0.102D-02 0.140D-02 0.207D-02 0.490D-02-0.466D-01 0.425D-01
 Coeff:      0.997D+00
 Gap=     0.593 Goal=   None    Shift=    0.000
 Gap=     0.229 Goal=   None    Shift=    0.000
 RMSDP=1.99D-06 MaxDP=1.91D-05 DE=-8.08D-08 OVMax= 2.34D-05

 Cycle   8  Pass 1  IDiag  1:
 E= -75.9545728715371     Delta-E=       -0.000000001749 Rises=F Damp=F
 DIIS: error= 1.19D-06 at cycle   8 NSaved=   8.
 NSaved= 8 IEnMin= 8 EnMin= -75.9545728715371     IErMin= 8 ErrMin= 1.19D-06
 ErrMax= 1.19D-06  0.00D+00 EMaxC= 1.00D-01 BMatC= 8.18D-11 BMatP= 7.01D-09
 IDIUse=1 WtCom= 1.00D+00 WtEn= 0.00D+00
 Coeff-Com:  0.613D-04-0.784D-04-0.365D-03-0.569D-03 0.629D-02-0.937D-02
 Coeff-Com: -0.165D+00 0.117D+01
 Coeff:      0.613D-04-0.784D-04-0.365D-03-0.569D-03 0.629D-02-0.937D-02
 Coeff:     -0.165D+00 0.117D+01
 Gap=     0.593 Goal=   None    Shift=    0.000
 Gap=     0.229 Goal=   None    Shift=    0.000
 RMSDP=2.10D-07 MaxDP=1.65D-06 DE=-1.75D-09 OVMax= 1.97D-06

 Cycle   9  Pass 1  IDiag  1:
 E= -75.9545728715555     Delta-E=       -0.000000000018 Rises=F Damp=F
 DIIS: error= 5.63D-08 at cycle   9 NSaved=   9.
 NSaved= 9 IEnMin= 9 EnMin= -75.9545728715555     IErMin= 9 ErrMin= 5.63D-08
 ErrMax= 5.63D-08  0.00D+00 EMaxC= 1.00D-01 BMatC= 1.30D-13 BMatP= 8.18D-11
 IDIUse=1 WtCom= 1.00D+00 WtEn= 0.00D+00
 Coeff-Com: -0.333D-05 0.322D-05 0.384D-04 0.607D-04-0.542D-03 0.737D-03
 Coeff-Com:  0.130D-01-0.102D+00 0.109D+01
 Coeff:     -0.333D-05 0.322D-05 0.384D-04 0.607D-04-0.542D-03 0.737D-03
 Coeff:      0.130D-01-0.102D+00 0.109D+01
 Gap=     0.593 Goal=   None    Shift=    0.000
 Gap=     0.229 Goal=   None    Shift=    0.000
 RMSDP=9.11D-09 MaxDP=7.45D-08 DE=-1.83D-11 OVMax= 7.74D-08

 SCF Done:  E(UB3LYP) =  -75.9545728716     A.U. after    9 cycles
            NFock=  9  Conv=0.91D-08     -V/T= 2.0069
 <Sx>= 0.0000 <Sy>= 0.0000 <Sz>= 0.5000 <S**2>= 0.7524 S= 0.5012
 <L.S>= 0.000000000000E+00
 KE= 7.543761773030D+01 PE=-1.933083537916D+02 EE= 3.282831873291D+01
 Annihilation of the first spin contaminant:
 S**2 before annihilation     0.7524,   after     0.7500
 Leave Link  502 at Mon May 27 17:20:24 2019, MaxMem=   131072000 cpu:         0.3
 (Enter /applis/g09/l601.exe)
 Copying SCF densities to generalized density rwf, IOpCl= 1 IROHF=0.

 **********************************************************************

            Population analysis using the SCF density.

 **********************************************************************

 Orbital symmetries:
 Alpha Orbitals:
       Occupied  (A1) (A1) (B2) (B1) (A1)
       Virtual   (A1) (B2) (B2) (B1) (A1) (A1) (B2) (A1) (A2) (A1)
                 (B1) (A1) (B2) (A1)
 Beta  Orbitals:
       Occupied  (A1) (A1) (B2) (A1)
       Virtual   (B1) (A1) (B2) (B2) (A1) (B1) (A1) (B2) (A1) (A1)
                 (A2) (B1) (A1) (B2) (A1)
 The electronic state is 2-B1.
 Alpha  occ. eigenvalues --  -19.72069  -1.53878  -1.00788  -0.88184  -0.87475
 Alpha virt. eigenvalues --   -0.28221  -0.20323   0.37906   0.40241   0.42434
 Alpha virt. eigenvalues --    0.48513   0.63942   0.76391   1.22014   1.24253
 Alpha virt. eigenvalues --    1.25582   1.78040   2.11409   3.06345
  Beta  occ. eigenvalues --  -19.69340  -1.46740  -0.98616  -0.84387
  Beta virt. eigenvalues --   -0.61507  -0.27160  -0.19724   0.37753   0.44003
  Beta virt. eigenvalues --    0.49821   0.50307   0.65440   0.79358   1.26617
  Beta virt. eigenvalues --    1.28575   1.32038   1.84079   2.12456   3.10766
     Alpha Molecular Orbital Coefficients:
                           1         2         3         4         5
                        (A1)--O   (A1)--O   (B2)--O   (B1)--O   (A1)--O
     Eigenvalues --   -19.72069  -1.53878  -1.00788  -0.88184  -0.87475
   1 1   O  1S          0.99263  -0.21741   0.00000   0.00000  -0.07678
   2        2S          0.02685   0.52440   0.00000   0.00000   0.19466
   3        2PX         0.00000   0.00000   0.00000   0.73036   0.00000
   4        2PY         0.00000   0.00000   0.59490   0.00000   0.00000
   5        2PZ        -0.00114  -0.13653   0.00000   0.00000   0.62925
   6        3S          0.01083   0.42972   0.00000   0.00000   0.25423
   7        3PX         0.00000   0.00000   0.00000   0.40783   0.00000
   8        3PY         0.00000   0.00000   0.29205   0.00000   0.00000
   9        3PZ        -0.00001  -0.06695   0.00000   0.00000   0.34897
  10        4XX        -0.00793   0.00887   0.00000   0.00000   0.02307
  11        4YY        -0.00826   0.01567   0.00000   0.00000   0.00880
  12        4ZZ        -0.00823   0.01300   0.00000   0.00000  -0.05037
  13        4XY         0.00000   0.00000   0.00000   0.00000   0.00000
  14        4XZ         0.00000   0.00000   0.00000  -0.03848   0.00000
  15        4YZ         0.00000   0.00000  -0.04995   0.00000   0.00000
  16 2   H  1S          0.00045   0.12202   0.21713   0.00000  -0.13164
  17        2S         -0.00115  -0.02037   0.04362   0.00000  -0.04649
  18 3   H  1S          0.00045   0.12202  -0.21713   0.00000  -0.13164
  19        2S         -0.00115  -0.02037  -0.04362   0.00000  -0.04649
                           6         7         8         9        10
                        (A1)--V   (B2)--V   (B2)--V   (B1)--V   (A1)--V
     Eigenvalues --    -0.28221  -0.20323   0.37906   0.40241   0.42434
   1 1   O  1S         -0.09495   0.00000   0.00000   0.00000   0.02634
   2        2S          0.22104   0.00000   0.00000   0.00000   0.06178
   3        2PX         0.00000   0.00000   0.00000  -0.89589   0.00000
   4        2PY         0.00000  -0.45617  -0.13118   0.00000   0.00000
   5        2PZ        -0.30288   0.00000   0.00000   0.00000   0.74137
   6        3S          1.00932   0.00000   0.00000   0.00000  -0.07319
   7        3PX         0.00000   0.00000   0.00000   1.08052   0.00000
   8        3PY         0.00000  -0.62020  -0.33531   0.00000   0.00000
   9        3PZ        -0.36580   0.00000   0.00000   0.00000  -0.58386
  10        4XX        -0.01543   0.00000   0.00000   0.00000  -0.08441
  11        4YY        -0.03499   0.00000   0.00000   0.00000   0.19516
  12        4ZZ        -0.01038   0.00000   0.00000   0.00000   0.08146
  13        4XY         0.00000   0.00000   0.00000   0.00000   0.00000
  14        4XZ         0.00000   0.00000   0.00000  -0.02884   0.00000
  15        4YZ         0.00000  -0.00691  -0.22413   0.00000   0.00000
  16 2   H  1S         -0.17394   0.22037   0.80167   0.00000   0.59371
  17        2S         -0.86204   1.12373  -0.78450   0.00000  -0.54125
  18 3   H  1S         -0.17394  -0.22037  -0.80167   0.00000   0.59371
  19        2S         -0.86204  -1.12373   0.78450   0.00000  -0.54125
                          11        12        13        14        15
                        (A1)--V   (B2)--V   (A1)--V   (A2)--V   (A1)--V
     Eigenvalues --     0.48513   0.63942   0.76391   1.22014   1.24253
   1 1   O  1S          0.01694   0.00000  -0.07349   0.00000  -0.00005
   2        2S         -0.72488   0.00000  -1.49198   0.00000   0.07030
   3        2PX         0.00000   0.00000   0.00000   0.00000   0.00000
   4        2PY         0.00000  -0.93126   0.00000   0.00000   0.00000
   5        2PZ        -0.43076   0.00000   0.36281   0.00000  -0.00912
   6        3S          1.19199   0.00000   3.60968   0.00000  -0.14884
   7        3PX         0.00000   0.00000   0.00000   0.00000   0.00000
   8        3PY         0.00000   1.69483   0.00000   0.00000   0.00000
   9        3PZ         0.80204   0.00000  -1.04929   0.00000   0.11532
  10        4XX        -0.33223   0.00000  -0.20132   0.00000  -0.40045
  11        4YY        -0.03078   0.00000  -0.64293   0.00000  -0.57695
  12        4ZZ        -0.21561   0.00000  -0.37298   0.00000   0.99776
  13        4XY         0.00000   0.00000   0.00000   1.00000   0.00000
  14        4XZ         0.00000   0.00000   0.00000   0.00000   0.00000
  15        4YZ         0.00000   0.02201   0.00000   0.00000   0.00000
  16 2   H  1S          0.58556   0.01577  -0.27723   0.00000   0.03872
  17        2S         -0.45097  -1.02979  -0.84747   0.00000   0.03613
  18 3   H  1S          0.58556  -0.01577  -0.27723   0.00000   0.03872
  19        2S         -0.45097   1.02979  -0.84747   0.00000   0.03613
                          16        17        18        19
                        (B1)--V   (A1)--V   (B2)--V   (A1)--V
     Eigenvalues --     1.25582   1.78040   2.11409   3.06345
   1 1   O  1S          0.00000  -0.06123   0.00000  -0.46890
   2        2S          0.00000  -0.53494   0.00000   0.23404
   3        2PX         0.00228   0.00000   0.00000   0.00000
   4        2PY         0.00000   0.00000   0.04223   0.00000
   5        2PZ         0.00000   0.07241   0.00000   0.11702
   6        3S          0.00000   1.66334   0.00000   3.79711
   7        3PX         0.04691   0.00000   0.00000   0.00000
   8        3PY         0.00000   0.00000  -0.85848   0.00000
   9        3PZ         0.00000  -0.79170   0.00000  -0.34600
  10        4XX         0.00000  -1.11924   0.00000  -1.58306
  11        4YY         0.00000   0.73156   0.00000  -1.54488
  12        4ZZ         0.00000   0.01400   0.00000  -1.56988
  13        4XY         0.00000   0.00000   0.00000   0.00000
  14        4XZ         0.99884   0.00000   0.00000   0.00000
  15        4YZ         0.00000   0.00000   1.26719   0.00000
  16 2   H  1S          0.00000  -0.85363   0.94237   0.11956
  17        2S          0.00000  -0.15767  -0.05994  -0.58029
  18 3   H  1S          0.00000  -0.85363  -0.94237   0.11956
  19        2S          0.00000  -0.15767   0.05994  -0.58029
     Beta Molecular Orbital Coefficients:
                           1         2         3         4         5
                        (A1)--O   (A1)--O   (B2)--O   (A1)--O   (B1)--V
     Eigenvalues --   -19.69340  -1.46740  -0.98616  -0.84387  -0.61507
   1 1   O  1S          0.99314  -0.21119   0.00000  -0.08245   0.00000
   2        2S          0.02543   0.49574   0.00000   0.20066   0.00000
   3        2PX         0.00000   0.00000   0.00000   0.00000   0.65349
   4        2PY         0.00000   0.00000   0.57544   0.00000   0.00000
   5        2PZ        -0.00111  -0.14218   0.00000   0.61342   0.00000
   6        3S          0.00931   0.42864   0.00000   0.28393   0.00000
   7        3PX         0.00000   0.00000   0.00000   0.00000   0.49627
   8        3PY         0.00000   0.00000   0.28680   0.00000   0.00000
   9        3PZ         0.00001  -0.07047   0.00000   0.35416   0.00000
  10        4XX        -0.00759  -0.01529   0.00000   0.01090   0.00000
  11        4YY        -0.00719   0.02797   0.00000   0.01411   0.00000
  12        4ZZ        -0.00719   0.02561   0.00000  -0.04393   0.00000
  13        4XY         0.00000   0.00000   0.00000   0.00000   0.00000
  14        4XZ         0.00000   0.00000   0.00000   0.00000  -0.03719
  15        4YZ         0.00000   0.00000  -0.04815   0.00000   0.00000
  16 2   H  1S          0.00029   0.13600   0.23100  -0.13412   0.00000
  17        2S         -0.00092  -0.01364   0.05495  -0.05129   0.00000
  18 3   H  1S          0.00029   0.13600  -0.23100  -0.13412   0.00000
  19        2S         -0.00092  -0.01364  -0.05495  -0.05129   0.00000
                           6         7         8         9        10
                        (A1)--V   (B2)--V   (B2)--V   (A1)--V   (B1)--V
     Eigenvalues --    -0.27160  -0.19724   0.37753   0.44003   0.49821
   1 1   O  1S         -0.09866   0.00000   0.00000   0.02996   0.00000
   2        2S          0.20962   0.00000   0.00000   0.04583   0.00000
   3        2PX         0.00000   0.00000   0.00000   0.00000  -0.95342
   4        2PY         0.00000  -0.45959  -0.13747   0.00000   0.00000
   5        2PZ        -0.30228   0.00000   0.00000   0.75875   0.00000
   6        3S          1.05985   0.00000   0.00000  -0.07681   0.00000
   7        3PX         0.00000   0.00000   0.00000   0.00000   1.04296
   8        3PY         0.00000  -0.64425  -0.34003   0.00000   0.00000
   9        3PZ        -0.38148   0.00000   0.00000  -0.58475   0.00000
  10        4XX        -0.02949   0.00000   0.00000  -0.06082   0.00000
  11        4YY        -0.02930   0.00000   0.00000   0.18300   0.00000
  12        4ZZ        -0.00592   0.00000   0.00000   0.06711   0.00000
  13        4XY         0.00000   0.00000   0.00000   0.00000   0.00000
  14        4XZ         0.00000   0.00000   0.00000   0.00000  -0.02514
  15        4YZ         0.00000  -0.00467  -0.22031   0.00000   0.00000
  16 2   H  1S         -0.16587   0.21359   0.80305   0.59730   0.00000
  17        2S         -0.87941   1.13520  -0.78308  -0.53602   0.00000
  18 3   H  1S         -0.16587  -0.21359  -0.80305   0.59730   0.00000
  19        2S         -0.87941  -1.13520   0.78308  -0.53602   0.00000
                          11        12        13        14        15
                        (A1)--V   (B2)--V   (A1)--V   (A1)--V   (A2)--V
     Eigenvalues --     0.50307   0.65440   0.79358   1.26617   1.28575
   1 1   O  1S          0.02183   0.00000  -0.07866   0.00908   0.00000
   2        2S         -0.73557   0.00000  -1.49082   0.10714   0.00000
   3        2PX         0.00000   0.00000   0.00000   0.00000   0.00000
   4        2PY         0.00000  -0.94087   0.00000   0.00000   0.00000
   5        2PZ        -0.42467   0.00000   0.36015  -0.01855   0.00000
   6        3S          1.16989   0.00000   3.64509  -0.30330   0.00000
   7        3PX         0.00000   0.00000   0.00000   0.00000   0.00000
   8        3PY         0.00000   1.68552   0.00000   0.00000   0.00000
   9        3PZ         0.80689   0.00000  -1.05184   0.17847   0.00000
  10        4XX        -0.30805   0.00000  -0.23226  -0.34332   0.00000
  11        4YY        -0.04515   0.00000  -0.66208  -0.59096   0.00000
  12        4ZZ        -0.23640   0.00000  -0.36649   1.00648   0.00000
  13        4XY         0.00000   0.00000   0.00000   0.00000   1.00000
  14        4XZ         0.00000   0.00000   0.00000   0.00000   0.00000
  15        4YZ         0.00000   0.02332   0.00000   0.00000   0.00000
  16 2   H  1S          0.60686   0.01605  -0.29498   0.09832   0.00000
  17        2S         -0.44895  -1.01779  -0.83752   0.05330   0.00000
  18 3   H  1S          0.60686  -0.01605  -0.29498   0.09832   0.00000
  19        2S         -0.44895   1.01779  -0.83752   0.05330   0.00000
                          16        17        18        19
                        (B1)--V   (A1)--V   (B2)--V   (A1)--V
     Eigenvalues --     1.32038   1.84079   2.12456   3.10766
   1 1   O  1S          0.00000  -0.05225   0.00000  -0.46867
   2        2S          0.00000  -0.54224   0.00000   0.24860
   3        2PX         0.00034   0.00000   0.00000   0.00000
   4        2PY         0.00000   0.00000   0.04186   0.00000
   5        2PZ         0.00000   0.06926   0.00000   0.11576
   6        3S          0.00000   1.59822   0.00000   3.77302
   7        3PX         0.04472   0.00000   0.00000   0.00000
   8        3PY         0.00000   0.00000  -0.85899   0.00000
   9        3PZ         0.00000  -0.76158   0.00000  -0.34336
  10        4XX         0.00000  -1.13375   0.00000  -1.58777
  11        4YY         0.00000   0.72195   0.00000  -1.53704
  12        4ZZ         0.00000   0.06960   0.00000  -1.56210
  13        4XY         0.00000   0.00000   0.00000   0.00000
  14        4XZ         0.99899   0.00000   0.00000   0.00000
  15        4YZ         0.00000   0.00000   1.26792   0.00000
  16 2   H  1S          0.00000  -0.82453   0.93945   0.11659
  17        2S          0.00000  -0.15302  -0.05802  -0.57478
  18 3   H  1S          0.00000  -0.82453  -0.93945   0.11659
  19        2S          0.00000  -0.15302   0.05802  -0.57478
     Alpha Density Matrix:
                           1         2         3         4         5
   1 1   O  1S          1.03848
   2        2S         -0.10230   0.31361
   3        2PX         0.00000   0.00000   0.53342
   4        2PY         0.00000   0.00000   0.00000   0.35391
   5        2PZ        -0.01977   0.05086   0.00000   0.00000   0.41460
   6        3S         -0.10220   0.27512   0.00000   0.00000   0.10130
   7        3PX         0.00000   0.00000   0.29786   0.00000   0.00000
   8        3PY         0.00000   0.00000   0.00000   0.17374   0.00000
   9        3PZ        -0.01225   0.03282   0.00000   0.00000   0.22873
  10        4XX        -0.01157   0.00893   0.00000   0.00000   0.01332
  11        4YY        -0.01229   0.00971   0.00000   0.00000   0.00341
  12        4ZZ        -0.00713  -0.00321   0.00000   0.00000  -0.03346
  13        4XY         0.00000   0.00000   0.00000   0.00000   0.00000
  14        4XZ         0.00000   0.00000  -0.02811   0.00000   0.00000
  15        4YZ         0.00000   0.00000   0.00000  -0.02971   0.00000
  16 2   H  1S         -0.01598   0.03838   0.00000   0.12917  -0.09950
  17        2S          0.00686  -0.01976   0.00000   0.02595  -0.02647
  18 3   H  1S         -0.01598   0.03838   0.00000  -0.12917  -0.09950
  19        2S          0.00686  -0.01976   0.00000  -0.02595  -0.02647
                           6         7         8         9        10
   6        3S          0.24941
   7        3PX         0.00000   0.16633
   8        3PY         0.00000   0.00000   0.08530
   9        3PZ         0.05995   0.00000   0.00000   0.12627
  10        4XX         0.00959   0.00000   0.00000   0.00746   0.00067
  11        4YY         0.00888   0.00000   0.00000   0.00202   0.00041
  12        4ZZ        -0.00731   0.00000   0.00000  -0.01845  -0.00098
  13        4XY         0.00000   0.00000   0.00000   0.00000   0.00000
  14        4XZ         0.00000  -0.01570   0.00000   0.00000   0.00000
  15        4YZ         0.00000   0.00000  -0.01459   0.00000   0.00000
  16 2   H  1S          0.01897   0.00000   0.06341  -0.05411  -0.00196
  17        2S         -0.02059   0.00000   0.01274  -0.01486  -0.00124
  18 3   H  1S          0.01897   0.00000  -0.06341  -0.05411  -0.00196
  19        2S         -0.02059   0.00000  -0.01274  -0.01486  -0.00124
                          11        12        13        14        15
  11        4YY         0.00039
  12        4ZZ        -0.00017   0.00277
  13        4XY         0.00000   0.00000   0.00000
  14        4XZ         0.00000   0.00000   0.00000   0.00148
  15        4YZ         0.00000   0.00000   0.00000   0.00000   0.00249
  16 2   H  1S          0.00075   0.00821   0.00000   0.00000  -0.01085
  17        2S         -0.00072   0.00209   0.00000   0.00000  -0.00218
  18 3   H  1S          0.00075   0.00821   0.00000   0.00000   0.01085
  19        2S         -0.00072   0.00209   0.00000   0.00000   0.00218
                          16        17        18        19
  16 2   H  1S          0.07936
  17        2S          0.01311   0.00448
  18 3   H  1S         -0.01492  -0.00584   0.07936
  19        2S         -0.00584   0.00068   0.01311   0.00448
     Beta Density Matrix:
                           1         2         3         4         5
   1 1   O  1S          1.03773
   2        2S         -0.09599   0.28667
   3        2PX         0.00000   0.00000   0.00000
   4        2PY         0.00000   0.00000   0.00000   0.33113
   5        2PZ        -0.02166   0.05258   0.00000   0.00000   0.39650
   6        3S         -0.10469   0.26971   0.00000   0.00000   0.11321
   7        3PX         0.00000   0.00000   0.00000   0.00000   0.00000
   8        3PY         0.00000   0.00000   0.00000   0.16504   0.00000
   9        3PZ        -0.01430   0.03613   0.00000   0.00000   0.22727
  10        4XX        -0.00521  -0.00559   0.00000   0.00000   0.00887
  11        4YY        -0.01422   0.01652   0.00000   0.00000   0.00468
  12        4ZZ        -0.00893   0.00370   0.00000   0.00000  -0.03058
  13        4XY         0.00000   0.00000   0.00000   0.00000   0.00000
  14        4XZ         0.00000   0.00000   0.00000   0.00000   0.00000
  15        4YZ         0.00000   0.00000   0.00000  -0.02771   0.00000
  16 2   H  1S         -0.01738   0.04052   0.00000   0.13293  -0.10161
  17        2S          0.00619  -0.01707   0.00000   0.03162  -0.02952
  18 3   H  1S         -0.01738   0.04052   0.00000  -0.13293  -0.10161
  19        2S          0.00619  -0.01707   0.00000  -0.03162  -0.02952
                           6         7         8         9        10
   6        3S          0.26444
   7        3PX         0.00000   0.00000
   8        3PY         0.00000   0.00000   0.08225
   9        3PZ         0.07035   0.00000   0.00000   0.13039
  10        4XX        -0.00353   0.00000   0.00000   0.00494   0.00041
  11        4YY         0.01593   0.00000   0.00000   0.00302  -0.00022
  12        4ZZ        -0.00156   0.00000   0.00000  -0.01736  -0.00082
  13        4XY         0.00000   0.00000   0.00000   0.00000   0.00000
  14        4XZ         0.00000   0.00000   0.00000   0.00000   0.00000
  15        4YZ         0.00000   0.00000  -0.01381   0.00000   0.00000
  16 2   H  1S          0.02022   0.00000   0.06625  -0.05708  -0.00354
  17        2S         -0.02042   0.00000   0.01576  -0.01720  -0.00034
  18 3   H  1S          0.02022   0.00000  -0.06625  -0.05708  -0.00354
  19        2S         -0.02042   0.00000  -0.01576  -0.01720  -0.00034
                          11        12        13        14        15
  11        4YY         0.00103
  12        4ZZ         0.00015   0.00264
  13        4XY         0.00000   0.00000   0.00000
  14        4XZ         0.00000   0.00000   0.00000   0.00000
  15        4YZ         0.00000   0.00000   0.00000   0.00000   0.00232
  16 2   H  1S          0.00191   0.00937   0.00000   0.00000  -0.01112
  17        2S         -0.00110   0.00191   0.00000   0.00000  -0.00265
  18 3   H  1S          0.00191   0.00937   0.00000   0.00000   0.01112
  19        2S         -0.00110   0.00191   0.00000   0.00000   0.00265
                          16        17        18        19
  16 2   H  1S          0.08985
  17        2S          0.01772   0.00584
  18 3   H  1S         -0.01688  -0.00767   0.08985
  19        2S         -0.00767  -0.00020   0.01772   0.00584
    Full Mulliken population analysis:
                           1         2         3         4         5
   1 1   O  1S          2.07621
   2        2S         -0.04634   0.60028
   3        2PX         0.00000   0.00000   0.53342
   4        2PY         0.00000   0.00000   0.00000   0.68504
   5        2PZ         0.00000   0.00000   0.00000   0.00000   0.81111
   6        3S         -0.03461   0.41606   0.00000   0.00000   0.00000
   7        3PX         0.00000   0.00000   0.14939   0.00000   0.00000
   8        3PY         0.00000   0.00000   0.00000   0.16990   0.00000
   9        3PZ         0.00000   0.00000   0.00000   0.00000   0.22869
  10        4XX        -0.00056   0.00183   0.00000   0.00000   0.00000
  11        4YY        -0.00089   0.01435   0.00000   0.00000   0.00000
  12        4ZZ        -0.00054   0.00027   0.00000   0.00000   0.00000
  13        4XY         0.00000   0.00000   0.00000   0.00000   0.00000
  14        4XZ         0.00000   0.00000   0.00000   0.00000   0.00000
  15        4YZ         0.00000   0.00000   0.00000   0.00000   0.00000
  16 2   H  1S         -0.00111   0.01903   0.00000   0.05789   0.03495
  17        2S          0.00089  -0.01387   0.00000   0.00669   0.00512
  18 3   H  1S         -0.00111   0.01903   0.00000   0.05789   0.03495
  19        2S          0.00089  -0.01387   0.00000   0.00669   0.00512
                           6         7         8         9        10
   6        3S          0.51384
   7        3PX         0.00000   0.16633
   8        3PY         0.00000   0.00000   0.16755
   9        3PZ         0.00000   0.00000   0.00000   0.25666
  10        4XX         0.00423   0.00000   0.00000   0.00000   0.00108
  11        4YY         0.01734   0.00000   0.00000   0.00000   0.00006
  12        4ZZ        -0.00620   0.00000   0.00000   0.00000  -0.00060
  13        4XY         0.00000   0.00000   0.00000   0.00000   0.00000
  14        4XZ         0.00000   0.00000   0.00000   0.00000   0.00000
  15        4YZ         0.00000   0.00000   0.00000   0.00000   0.00000
  16 2   H  1S          0.01651   0.00000   0.05928   0.04000  -0.00090
  17        2S         -0.02783   0.00000   0.01081   0.00957  -0.00063
  18 3   H  1S          0.01651   0.00000   0.05928   0.04000  -0.00090
  19        2S         -0.02783   0.00000   0.01081   0.00957  -0.00063
                          11        12        13        14        15
  11        4YY         0.00142
  12        4ZZ        -0.00001   0.00541
  13        4XY         0.00000   0.00000   0.00000
  14        4XZ         0.00000   0.00000   0.00000   0.00148
  15        4YZ         0.00000   0.00000   0.00000   0.00000   0.00481
  16 2   H  1S          0.00107   0.00545   0.00000   0.00000   0.00713
  17        2S         -0.00080   0.00169   0.00000   0.00000   0.00029
  18 3   H  1S          0.00107   0.00545   0.00000   0.00000   0.00713
  19        2S         -0.00080   0.00169   0.00000   0.00000   0.00029
                          16        17        18        19
  16 2   H  1S          0.16921
  17        2S          0.02029   0.01032
  18 3   H  1S         -0.00160  -0.00300   0.16921
  19        2S         -0.00300   0.00024   0.02029   0.01032
     Gross orbital populations:
                         Total     Alpha     Beta      Spin
   1 1   O  1S          1.99283   0.99631   0.99652  -0.00021
   2        2S          0.99678   0.51188   0.48490   0.02698
   3        2PX         0.68281   0.68281   0.00000   0.68281
   4        2PY         0.98411   0.50414   0.47997   0.02416
   5        2PZ         1.11995   0.56875   0.55121   0.01754
   6        3S          0.88803   0.43825   0.44978  -0.01153
   7        3PX         0.31571   0.31571   0.00000   0.31571
   8        3PY         0.47765   0.24008   0.23756   0.00252
   9        3PZ         0.58451   0.28879   0.29572  -0.00693
  10        4XX         0.00300   0.01006  -0.00706   0.01712
  11        4YY         0.03281   0.01154   0.02127  -0.00972
  12        4ZZ         0.01263   0.00215   0.01048  -0.00833
  13        4XY         0.00000   0.00000   0.00000   0.00000
  14        4XZ         0.00148   0.00148   0.00000   0.00148
  15        4YZ         0.01966   0.00980   0.00986  -0.00006
  16 2   H  1S          0.42422   0.20299   0.22122  -0.01823
  17        2S          0.01980   0.00613   0.01367  -0.00754
  18 3   H  1S          0.42422   0.20299   0.22122  -0.01823
  19        2S          0.01980   0.00613   0.01367  -0.00754
          Condensed to atoms (all electrons):
               1          2          3
     1  O    7.649419   0.231269   0.231269
     2  H    0.231269   0.220108  -0.007355
     3  H    0.231269  -0.007355   0.220108
          Atomic-Atomic Spin Densities.
               1          2          3
     1  O    1.069993  -0.009224  -0.009224
     2  H   -0.009224  -0.017910   0.001362
     3  H   -0.009224   0.001362  -0.017910
 Mulliken charges and spin densities:
               1          2
     1  O   -0.111957   1.051544
     2  H    0.555979  -0.025772
     3  H    0.555979  -0.025772
 Sum of Mulliken charges =   1.00000   1.00000
 Mulliken charges and spin densities with hydrogens summed into heavy atoms:
               1          2
     1  O    1.000000   1.000000
 Electronic spatial extent (au):  <R**2>=             14.5572
 Charge=              1.0000 electrons
 Dipole moment (field-independent basis, Debye):
    X=              0.0000    Y=              0.0000    Z=             -2.3325  Tot=              2.3325
 Quadrupole moment (field-independent basis, Debye-Ang):
   XX=             -4.7669   YY=             -2.2073   ZZ=             -4.2805
   XY=              0.0000   XZ=              0.0000   YZ=              0.0000
 Traceless Quadrupole moment (field-independent basis, Debye-Ang):
   XX=             -1.0153   YY=              1.5442   ZZ=             -0.5289
   XY=              0.0000   XZ=              0.0000   YZ=              0.0000
 Octapole moment (field-independent basis, Debye-Ang**2):
  XXX=              0.0000  YYY=              0.0000  ZZZ=             -1.6259  XYY=              0.0000
  XXY=              0.0000  XXZ=             -0.2734  XZZ=              0.0000  YZZ=              0.0000
  YYZ=             -1.8101  XYZ=              0.0000
 Hexadecapole moment (field-independent basis, Debye-Ang**3):
 XXXX=             -2.7162 YYYY=             -2.9392 ZZZZ=             -4.2896 XXXY=              0.0000
 XXXZ=              0.0000 YYYX=              0.0000 YYYZ=              0.0000 ZZZX=              0.0000
 ZZZY=              0.0000 XXYY=             -1.2750 XXZZ=             -1.2188 YYZZ=             -0.7718
 XXYZ=              0.0000 YYXZ=              0.0000 ZZXY=              0.0000
 N-N= 9.087844456835D+00 E-N=-1.933083546365D+02  KE= 7.543761773030D+01
 Symmetry A1   KE= 6.857600833915D+01
 Symmetry A2   KE= 5.969915925454D-35
 Symmetry B1   KE= 2.710467416414D+00
 Symmetry B2   KE= 4.151141974727D+00
 Orbital energies and kinetic energies (alpha):
                                 1                 2
   1         (A1)--O         -19.720686         29.016581
   2         (A1)--O          -1.538778          2.834499
   3         (B2)--O          -1.007884          2.114128
   4         (B1)--O          -0.881838          2.710467
   5         (A1)--O          -0.874754          2.511860
   6         (A1)--V          -0.282211          1.297636
   7         (B2)--V          -0.203227          1.423827
   8         (B2)--V           0.379065          1.938837
   9         (B1)--V           0.402408          3.143573
  10         (A1)--V           0.424345          3.135409
  11         (A1)--V           0.485126          2.343630
  12         (B2)--V           0.639424          3.380343
  13         (A1)--V           0.763912          2.353868
  14         (A2)--V           1.220139          2.800000
  15         (A1)--V           1.242528          2.790524
  16         (B1)--V           1.255815          2.795149
  17         (A1)--V           1.780395          3.471535
  18         (B2)--V           2.114092          3.890790
  19         (A1)--V           3.063446          9.715104
 Orbital energies and kinetic energies (beta):
                                 1                 2
   1         (A1)--O         -19.693397         29.049778
   2         (A1)--O          -1.467399          2.688333
   3         (B2)--O          -0.986156          2.037014
   4         (A1)--O          -0.843874          2.474957
   5         (B1)--V          -0.615068          2.340800
   6         (A1)--V          -0.271599          1.313080
   7         (B2)--V          -0.197239          1.441145
   8         (B2)--V           0.377526          1.941102
   9         (A1)--V           0.440028          3.214060
  10         (B1)--V           0.498209          3.512664
  11         (A1)--V           0.503075          2.394175
  12         (B2)--V           0.654402          3.438620
  13         (A1)--V           0.793582          2.329052
  14         (A1)--V           1.266172          2.785799
  15         (A2)--V           1.285745          2.800000
  16         (B1)--V           1.320380          2.795725
  17         (A1)--V           1.840795          3.468210
  18         (B2)--V           2.124556          3.890044
  19         (A1)--V           3.107661          9.753200
 Total kinetic energy from orbitals= 7.543761773030D+01
                          Isotropic Fermi Contact Couplings
        Atom                 a.u.       MegaHertz       Gauss      10(-4) cm-1
     1  O(17)              0.13874     -84.10660     -30.01133     -28.05494
     2  H(1)              -0.01534     -68.57496     -24.46925     -22.87415
     3  H(1)              -0.01534     -68.57496     -24.46925     -22.87415
 --------------------------------------------------------
       Center         ----  Spin Dipole Couplings  ----
                      3XX-RR        3YY-RR        3ZZ-RR
 --------------------------------------------------------
     1   Atom        3.919507     -1.934151     -1.985356
     2   Atom       -0.051268      0.068730     -0.017462
     3   Atom       -0.051268      0.068730     -0.017462
 --------------------------------------------------------
                        XY            XZ            YZ
 --------------------------------------------------------
     1   Atom        0.000000      0.000000      0.000000
     2   Atom        0.000000      0.000000     -0.152882
     3   Atom        0.000000      0.000000      0.152882
 --------------------------------------------------------


 ---------------------------------------------------------------------------------
              Anisotropic Spin Dipole Couplings in Principal Axis System
 ---------------------------------------------------------------------------------

       Atom             a.u.   MegaHertz   Gauss  10(-4) cm-1        Axes

              Baa    -1.9854   143.659    51.261    47.919  0.0000  0.0000  1.0000
     1 O(17)  Bbb    -1.9342   139.954    49.939    46.684  0.0000  1.0000  0.0000
              Bcc     3.9195  -283.613  -101.200   -94.603  1.0000  0.0000  0.0000
 
              Baa    -0.1332   -71.072   -25.360   -23.707  0.0000  0.6036  0.7973
     2 H(1)   Bbb    -0.0513   -27.354    -9.761    -9.124  1.0000  0.0000  0.0000
              Bcc     0.1845    98.427    35.121    32.832  0.0000  0.7973 -0.6036
 
              Baa    -0.1332   -71.072   -25.360   -23.707  0.0000 -0.6036  0.7973
     3 H(1)   Bbb    -0.0513   -27.354    -9.761    -9.124  1.0000  0.0000  0.0000
              Bcc     0.1845    98.427    35.121    32.832  0.0000  0.7973  0.6036
 

 ---------------------------------------------------------------------------------

 No NMR shielding tensors so no spin-rotation constants.
 Leave Link  601 at Mon May 27 17:20:24 2019, MaxMem=   131072000 cpu:         0.2
 (Enter /applis/g09/l9999.exe)
 1\1\GINC-MOLTECH-CALC0\SP\UB3LYP\6-31G(d)\H2O1(1+,2)\TCAUCHY\27-May-20
 19\0\\#P B3LYP SP 6-31G* guess=read geom=check Direct gfprint pop=(ful
 l)\\OPT H20 B3LYP 6-31G*\\1,2\O,0,0.,0.,-0.1006369329\H,0,0.,0.7612827
 676,-0.6996815335\H,0,0.,-0.7612827676,-0.6996815335\\Version=EM64L-G0
 9RevD.01\State=2-B1\HF=-75.9545729\S2=0.752399\S2-1=0.\S2A=0.750004\RM
 SD=9.105e-09\Dipole=0.,0.,-0.9176739\Quadrupole=-0.7548414,1.1481027,-
 0.3932613,0.,0.,0.\PG=C02V [C2(O1),SGV(H2)]\\@


 THERE IS AN OLD, OLD RECIPE IN MAINE FOR STEWING COOT. PLACE THE
 BIRD IN A KETTLE OF WATER WITH A RED BUILDING BRICK FREE OF MORTAR AND
 BLEMISHES. PARBOIL THE COOT AND BRICK TOGETHER FOR THREE HOURS.
 POUR OFF THE WATER, REFILL THE KETTLE, AND AGAIN PARBOIL FOR THREE HOURS.
 ONCE AGAIN POUR OFF THE WATER, FOR THE LAST TIME ADD FRESH WATER,
 AND LET THE COOT AND BRICK SIMMER TOGETHER OVERNIGHT. IN THE MORNING,
 THROW AWAY THE COOT AND EAT THE BRICK.
 Job cpu time:       0 days  0 hours  0 minutes  0.9 seconds.
 File lengths (MBytes):  RWF=      5 Int=      0 D2E=      0 Chk=      1 Scr=      1
 Normal termination of Gaussian 09 at Mon May 27 17:20:24 2019.
