 Entering Gaussian System, Link 0=g09
 Input=H2O_TD.inp
 Output=H2O_TD.log
 Initial command:
 /applis/g09/l1.exe "/tmp/Gau-12146.inp" -scrdir="/tmp/"
 Entering Link 1 = /applis/g09/l1.exe PID=     12148.
  
 Copyright (c) 1988,1990,1992,1993,1995,1998,2003,2009,2013,
            Gaussian, Inc.  All Rights Reserved.
  
 This is part of the Gaussian(R) 09 program.  It is based on
 the Gaussian(R) 03 system (copyright 2003, Gaussian, Inc.),
 the Gaussian(R) 98 system (copyright 1998, Gaussian, Inc.),
 the Gaussian(R) 94 system (copyright 1995, Gaussian, Inc.),
 the Gaussian 92(TM) system (copyright 1992, Gaussian, Inc.),
 the Gaussian 90(TM) system (copyright 1990, Gaussian, Inc.),
 the Gaussian 88(TM) system (copyright 1988, Gaussian, Inc.),
 the Gaussian 86(TM) system (copyright 1986, Carnegie Mellon
 University), and the Gaussian 82(TM) system (copyright 1983,
 Carnegie Mellon University). Gaussian is a federally registered
 trademark of Gaussian, Inc.
  
 This software contains proprietary and confidential information,
 including trade secrets, belonging to Gaussian, Inc.
  
 This software is provided under written license and may be
 used, copied, transmitted, or stored only in accord with that
 written license.
  
 The following legend is applicable only to US Government
 contracts under FAR:
  
                    RESTRICTED RIGHTS LEGEND
  
 Use, reproduction and disclosure by the US Government is
 subject to restrictions as set forth in subparagraphs (a)
 and (c) of the Commercial Computer Software - Restricted
 Rights clause in FAR 52.227-19.
  
 Gaussian, Inc.
 340 Quinnipiac St., Bldg. 40, Wallingford CT 06492
  
  
 ---------------------------------------------------------------
 Warning -- This program may not be used in any manner that
 competes with the business of Gaussian, Inc. or will provide
 assistance to any competitor of Gaussian, Inc.  The licensee
 of this program is prohibited from giving any competitor of
 Gaussian, Inc. access to this program.  By using this program,
 the user acknowledges that Gaussian, Inc. is engaged in the
 business of creating and licensing software in the field of
 computational chemistry and represents and warrants to the
 licensee that it is not a competitor of Gaussian, Inc. and that
 it will not use this program in any manner prohibited above.
 ---------------------------------------------------------------
  

 Cite this work as:
 Gaussian 09, Revision D.01,
 M. J. Frisch, G. W. Trucks, H. B. Schlegel, G. E. Scuseria, 
 M. A. Robb, J. R. Cheeseman, G. Scalmani, V. Barone, B. Mennucci, 
 G. A. Petersson, H. Nakatsuji, M. Caricato, X. Li, H. P. Hratchian, 
 A. F. Izmaylov, J. Bloino, G. Zheng, J. L. Sonnenberg, M. Hada, 
 M. Ehara, K. Toyota, R. Fukuda, J. Hasegawa, M. Ishida, T. Nakajima, 
 Y. Honda, O. Kitao, H. Nakai, T. Vreven, J. A. Montgomery, Jr., 
 J. E. Peralta, F. Ogliaro, M. Bearpark, J. J. Heyd, E. Brothers, 
 K. N. Kudin, V. N. Staroverov, T. Keith, R. Kobayashi, J. Normand, 
 K. Raghavachari, A. Rendell, J. C. Burant, S. S. Iyengar, J. Tomasi, 
 M. Cossi, N. Rega, J. M. Millam, M. Klene, J. E. Knox, J. B. Cross, 
 V. Bakken, C. Adamo, J. Jaramillo, R. Gomperts, R. E. Stratmann, 
 O. Yazyev, A. J. Austin, R. Cammi, C. Pomelli, J. W. Ochterski, 
 R. L. Martin, K. Morokuma, V. G. Zakrzewski, G. A. Voth, 
 P. Salvador, J. J. Dannenberg, S. Dapprich, A. D. Daniels, 
 O. Farkas, J. B. Foresman, J. V. Ortiz, J. Cioslowski, 
 and D. J. Fox, Gaussian, Inc., Wallingford CT, 2013.
 
 ******************************************
 Gaussian 09:  EM64L-G09RevD.01 24-Apr-2013
                27-May-2019 
 ******************************************
 %Chk=TD
 %nprocshared=1
 Will use up to    1 processors via shared memory.
 %mem=1000MB
 ----------------------------------------------------------------------
 #P TD(nstates=5) guess=read geom=allcheck B3LYP 6-31G* Direct gfprint 
 pop=(full)
 ----------------------------------------------------------------------
 1/29=7,38=1/1;
 2/12=2,40=1/2;
 3/5=1,6=6,7=1,11=9,14=-4,16=1,24=100,25=1,30=1,74=-5,116=-2/1,2,8,3;
 4/5=1/1;
 5/5=2,38=6/2;
 8/6=1,10=2,108=5/1;
 9/41=5,42=1,70=2/14;
 6/7=3/1;
 99/5=1,9=1/99;
 Leave Link    1 at Mon May 27 17:20:36 2019, MaxMem=   131072000 cpu:         0.0
 (Enter /applis/g09/l101.exe)
 Structure from the checkpoint file:  "TD.chk"
 --------------------
 OPT H20 B3LYP 6-31G*
 --------------------
 Charge =  0 Multiplicity = 1
 Redundant internal coordinates found in file.
 O,0,0.,0.,-0.1006369329
 H,0,0.,0.7612827676,-0.6996815335
 H,0,0.,-0.7612827676,-0.6996815335
 Recover connectivity data from disk.
 NAtoms=      3 NQM=        3 NQMF=       0 NMMI=      0 NMMIF=      0
                NMic=       0 NMicF=      0.
                    Isotopes and Nuclear Properties:
 (Nuclear quadrupole moments (NQMom) in fm**2, nuclear magnetic moments (NMagM)
  in nuclear magnetons)

  Atom         1           2           3
 IAtWgt=          16           1           1
 AtmWgt=  15.9949146   1.0078250   1.0078250
 NucSpn=           0           1           1
 AtZEff=  -5.6000000  -1.0000000  -1.0000000
 NQMom=    0.0000000   0.0000000   0.0000000
 NMagM=    0.0000000   2.7928460   2.7928460
 AtZNuc=   8.0000000   1.0000000   1.0000000
 Leave Link  101 at Mon May 27 17:20:36 2019, MaxMem=   131072000 cpu:         0.1
 (Enter /applis/g09/l202.exe)
                          Input orientation:                          
 ---------------------------------------------------------------------
 Center     Atomic      Atomic             Coordinates (Angstroms)
 Number     Number       Type             X           Y           Z
 ---------------------------------------------------------------------
      1          8           0        0.000000    0.000000   -0.100637
      2          1           0        0.000000    0.761283   -0.699682
      3          1           0        0.000000   -0.761283   -0.699682
 ---------------------------------------------------------------------
                    Distance matrix (angstroms):
                    1          2          3
     1  O    0.000000
     2  H    0.968714   0.000000
     3  H    0.968714   1.522566   0.000000
 Stoichiometry    H2O
 Framework group  C2V[C2(O),SGV(H2)]
 Deg. of freedom     2
 Full point group                 C2V     NOp   4
 RotChk:  IX=0 Diff= 3.87D-16
 Largest Abelian subgroup         C2V     NOp   4
 Largest concise Abelian subgroup C2      NOp   2
                         Standard orientation:                         
 ---------------------------------------------------------------------
 Center     Atomic      Atomic             Coordinates (Angstroms)
 Number     Number       Type             X           Y           Z
 ---------------------------------------------------------------------
      1          8           0        0.000000    0.000000    0.119809
      2          1           0        0.000000    0.761283   -0.479236
      3          1           0        0.000000   -0.761283   -0.479236
 ---------------------------------------------------------------------
 Rotational constants (GHZ):    786.7362194    432.6234524    279.1305529
 Leave Link  202 at Mon May 27 17:20:36 2019, MaxMem=   131072000 cpu:         0.0
 (Enter /applis/g09/l301.exe)
 Standard basis: 6-31G(d) (6D, 7F)
 Ernie: Thresh=  0.10000D-02 Tol=  0.10000D-05 Strict=F.
 AO basis set (Overlap normalization):
 Atom O1       Shell     1 S   6     bf    1 -     1          0.000000000000          0.000000000000          0.226406047306
      0.5484671660D+04  0.1831074430D-02
      0.8252349460D+03  0.1395017220D-01
      0.1880469580D+03  0.6844507810D-01
      0.5296450000D+02  0.2327143360D+00
      0.1689757040D+02  0.4701928980D+00
      0.5799635340D+01  0.3585208530D+00
 Atom O1       Shell     2 SP   3    bf    2 -     5          0.000000000000          0.000000000000          0.226406047306
      0.1553961625D+02 -0.1107775495D+00  0.7087426823D-01
      0.3599933586D+01 -0.1480262627D+00  0.3397528391D+00
      0.1013761750D+01  0.1130767015D+01  0.7271585773D+00
 Atom O1       Shell     3 SP   1    bf    6 -     9          0.000000000000          0.000000000000          0.226406047306
      0.2700058226D+00  0.1000000000D+01  0.1000000000D+01
 Atom O1       Shell     4 D   1     bf   10 -    15          0.000000000000          0.000000000000          0.226406047306
      0.8000000000D+00  0.1000000000D+01
 Atom H2       Shell     5 S   3     bf   16 -    16          0.000000000000          1.438615940459         -0.905624189222
      0.1873113696D+02  0.3349460434D-01
      0.2825394365D+01  0.2347269535D+00
      0.6401216923D+00  0.8137573261D+00
 Atom H2       Shell     6 S   1     bf   17 -    17          0.000000000000          1.438615940459         -0.905624189222
      0.1612777588D+00  0.1000000000D+01
 Atom H3       Shell     7 S   3     bf   18 -    18          0.000000000000         -1.438615940459         -0.905624189222
      0.1873113696D+02  0.3349460434D-01
      0.2825394365D+01  0.2347269535D+00
      0.6401216923D+00  0.8137573261D+00
 Atom H3       Shell     8 S   1     bf   19 -    19          0.000000000000         -1.438615940459         -0.905624189222
      0.1612777588D+00  0.1000000000D+01
 There are    10 symmetry adapted cartesian basis functions of A1  symmetry.
 There are     1 symmetry adapted cartesian basis functions of A2  symmetry.
 There are     3 symmetry adapted cartesian basis functions of B1  symmetry.
 There are     5 symmetry adapted cartesian basis functions of B2  symmetry.
 There are    10 symmetry adapted basis functions of A1  symmetry.
 There are     1 symmetry adapted basis functions of A2  symmetry.
 There are     3 symmetry adapted basis functions of B1  symmetry.
 There are     5 symmetry adapted basis functions of B2  symmetry.
    19 basis functions,    36 primitive gaussians,    19 cartesian basis functions
     5 alpha electrons        5 beta electrons
       nuclear repulsion energy         9.0878444568 Hartrees.
 IExCor=  402 DFT=T Ex+Corr=B3LYP ExCW=0 ScaHFX=  0.200000
 ScaDFX=  0.800000  0.720000  1.000000  0.810000 ScalE2=  1.000000  1.000000
 IRadAn=      0 IRanWt=     -1 IRanGd=            0 ICorTp=0 IEmpDi=  4
 NAtoms=    3 NActive=    3 NUniq=    2 SFac= 2.25D+00 NAtFMM=   60 NAOKFM=F Big=F
 Integral buffers will be    131072 words long.
 Regular integral format.
 Two-electron integral symmetry is turned on.
 Leave Link  301 at Mon May 27 17:20:36 2019, MaxMem=   131072000 cpu:         0.0
 (Enter /applis/g09/l302.exe)
 NPDir=0 NMtPBC=     1 NCelOv=     1 NCel=       1 NClECP=     1 NCelD=      1
         NCelK=      1 NCelE2=     1 NClLst=     1 CellRange=     0.0.
 One-electron integrals computed using PRISM.
 One-electron integral symmetry used in STVInt
 NBasis=    19 RedAO= T EigKep=  4.23D-02  NBF=    10     1     3     5
 NBsUse=    19 1.00D-06 EigRej= -1.00D+00 NBFU=    10     1     3     5
 Precomputing XC quadrature grid using
 IXCGrd= 4 IRadAn=           0 IRanWt=          -1 IRanGd=           0 AccXCQ= 0.00D+00.
 Generated NRdTot=       0 NPtTot=           0 NUsed=           0 NTot=          32
 NSgBfM=    19    19    19    19    19 MxSgAt=     3 MxSgA2=     3.
 Leave Link  302 at Mon May 27 17:20:36 2019, MaxMem=   131072000 cpu:         0.1
 (Enter /applis/g09/l308.exe)
 Leave Link  308 at Mon May 27 17:20:36 2019, MaxMem=   131072000 cpu:         0.0
 (Enter /applis/g09/l303.exe)
 DipDrv:  MaxL=1.
 Leave Link  303 at Mon May 27 17:20:36 2019, MaxMem=   131072000 cpu:         0.0
 (Enter /applis/g09/l401.exe)
 Initial guess from the checkpoint file:  "TD.chk"
 B after Tr=     0.000000    0.000000    0.000000
         Rot=    1.000000    0.000000    0.000000    0.000000 Ang=   0.00 deg.
 Guess basis will be translated and rotated to current coordinates.
 JPrj=2 DoOrth=T DoCkMO=T.
 Initial guess orbital symmetries:
       Occupied  (A1) (A1) (B2) (A1) (B1)
       Virtual   (A1) (B2) (B2) (A1) (B1) (A1) (B2) (A1) (A1) (A2)
                 (B1) (A1) (B2) (A1)
 The electronic state of the initial guess is 1-A1.
 Leave Link  401 at Mon May 27 17:20:36 2019, MaxMem=   131072000 cpu:         0.1
 (Enter /applis/g09/l502.exe)
 Closed shell SCF:
 Using DIIS extrapolation, IDIIS=  1040.
 Integral symmetry usage will be decided dynamically.
 Keep R1 ints in memory in symmetry-blocked form, NReq=898557.
 IVT=       20213 IEndB=       20213 NGot=   131072000 MDV=   131045418
 LenX=   131045418 LenY=   131044536
 Requested convergence on RMS density matrix=1.00D-08 within 128 cycles.
 Requested convergence on MAX density matrix=1.00D-06.
 Requested convergence on             energy=1.00D-06.
 No special actions if energy rises.
 FoFCou: FMM=F IPFlag=           0 FMFlag=           0 FMFlg1=           0
         NFxFlg=           0 DoJE=F BraDBF=F KetDBF=F FulRan=T
         wScrn=  0.000000 ICntrl=     600 IOpCl=  0 I1Cent=           0 NGrid=           0
         NMat0=    1 NMatS0=    190 NMatT0=    0 NMatD0=    1 NMtDS0=    0 NMtDT0=    0
 Petite list used in FoFCou.

 Cycle   1  Pass 1  IDiag  1:
 E= -76.4089532699311    
 DIIS: error= 1.73D-09 at cycle   1 NSaved=   1.
 NSaved= 1 IEnMin= 1 EnMin= -76.4089532699311     IErMin= 1 ErrMin= 1.73D-09
 ErrMax= 1.73D-09  0.00D+00 EMaxC= 1.00D-01 BMatC= 3.76D-17 BMatP= 3.76D-17
 IDIUse=1 WtCom= 1.00D+00 WtEn= 0.00D+00
 Coeff-Com:  0.100D+01
 Coeff:      0.100D+01
 Gap=     0.354 Goal=   None    Shift=    0.000
 RMSDP=6.42D-10 MaxDP=5.33D-09              OVMax= 5.27D-09

 SCF Done:  E(RB3LYP) =  -76.4089532699     A.U. after    1 cycles
            NFock=  1  Conv=0.64D-09     -V/T= 2.0078
 KE= 7.581967966885D+01 PE=-1.987558652968D+02 EE= 3.743938790119D+01
 Leave Link  502 at Mon May 27 17:20:36 2019, MaxMem=   131072000 cpu:         0.1
 (Enter /applis/g09/l801.exe)
 DoSCS=F DFT=T ScalE2(SS,OS)=  1.000000  1.000000
 ExpMin= 1.61D-01 ExpMax= 5.48D+03 ExpMxC= 8.25D+02 IAcc=3 IRadAn=         5 AccDes= 0.00D+00
 HarFok:  IExCor=  205 AccDes= 0.00D+00 IRadAn=         5 IDoV=-2 UseB2=F ITyADJ=14
 ICtDFT= 12500011 ScaDFX=  1.000000  1.000000  1.000000  1.000000
 Largest valence mixing into a core orbital is  2.71D-05
 Largest core mixing into a valence orbital is  6.02D-06
 Range of M.O.s used for correlation:     2    19
 NBasis=    19 NAE=     5 NBE=     5 NFC=     1 NFV=     0
 NROrb=     18 NOA=     4 NOB=     4 NVA=    14 NVB=    14
 Leave Link  801 at Mon May 27 17:20:36 2019, MaxMem=   131072000 cpu:         0.1
 (Enter /applis/g09/l914.exe)
 RHF ground state
 MDV=   131072000 DFT=T DoStab=F Mixed=T DoRPA=T DoScal=F NonHer=T
 Keep R1, R2, and R3 ints in memory in symmetry-blocked form, NReq=1006849.
 FoFCou: FMM=F IPFlag=           0 FMFlag=           0 FMFlg1=           0
         NFxFlg=           0 DoJE=F BraDBF=F KetDBF=F FulRan=T
         wScrn=  0.000000 ICntrl=     600 IOpCl=  0 I1Cent=           0 NGrid=           0
         NMat0=    1 NMatS0=    190 NMatT0=    0 NMatD0=    1 NMtDS0=    0 NMtDT0=    0
 Petite list used in FoFCou.
 Making orbital integer symmetry assigments:
 Orbital symmetries:
       Occupied  (A1) (A1) (B2) (A1) (B1)
       Virtual   (A1) (B2) (B2) (A1) (B1) (A1) (B2) (A1) (A1) (A2)
                 (B1) (A1) (B2) (A1)
    20 initial guesses have been made.
 Convergence on wavefunction:    0.001000000000000
 Davidson Disk Diagonalization:  ConvIn= 1.00D-03 SkipCon=T Conv= 1.00D-03.
 Max sub-space:   200 roots to seek:    20 dimension of matrix:          112
 Iteration     1 Dimension    20 NMult     0 NNew     20
 CISAX will form    20 AO SS matrices at one time.
 NMat=    20 NSing=    20 JSym2X=-1.
 New state      2 was old state      3
 New state      3 was old state      2
 Excitation Energies [eV] at current iteration:
 Root      1 :     7.957130308394432
 Root      2 :     9.944588219972424
 Root      3 :    10.546134621038170
 Root      4 :    12.775192825036140
 Root      5 :    14.565664870696870
 Root      6 :    17.917033426447890
 Root      7 :    26.568115196983670
 Root      8 :    27.805799916101450
 Root      9 :    28.845234737072850
 Root     10 :    29.525319467900240
 Root     11 :    30.421079830478130
 Root     12 :    30.568937034028140
 Root     13 :    30.785163896144770
 Root     14 :    31.732321283708570
 Root     15 :    32.130757229938990
 Root     16 :    33.937711407902330
 Root     17 :    35.037703608183160
 Root     18 :    35.535746358191230
 Root     19 :    36.853485648437570
 Root     20 :    41.567029631856190
 Iteration     2 Dimension    30 NMult    20 NNew     10
 CISAX will form    10 AO SS matrices at one time.
 NMat=    10 NSing=    10 JSym2X=-1.
 Root      1 not converged, maximum delta is    0.011426637339905
 Root      2 not converged, maximum delta is    0.007191903181708
 Root      3 not converged, maximum delta is    0.019947500812243
 Root      4 not converged, maximum delta is    0.026243284240638
 Root      5 not converged, maximum delta is    0.024148379887405
 Excitation Energies [eV] at current iteration:
 Root      1 :     7.916563271725147   Change is   -0.040567036669285
 Root      2 :     9.940040417178672   Change is   -0.004547802793752
 Root      3 :    10.502394012876040   Change is   -0.043740608162122
 Root      4 :    12.678957124304440   Change is   -0.096235700731705
 Root      5 :    14.516311034823360   Change is   -0.049353835873511
 Iteration     3 Dimension    40 NMult    30 NNew     10
 CISAX will form    10 AO SS matrices at one time.
 NMat=    10 NSing=    10 JSym2X=-1.
 Root      1 has converged.
 Root      2 has converged.
 Root      3 has converged.
 Root      4 has converged.
 Root      5 has converged.
 Excitation Energies [eV] at current iteration:
 Root      1 :     7.916407295455637   Change is   -0.000155976269511
 Root      2 :     9.940039891964505   Change is   -0.000000525214168
 Root      3 :    10.502232837949500   Change is   -0.000161174926547
 Root      4 :    12.678772404606100   Change is   -0.000184719698333
 Root      5 :    14.515956646078050   Change is   -0.000354388745308
 Convergence achieved on expansion vectors.
 ***********************************************************************
 Excited states from <AA,BB:AA,BB> singles matrix:
 ***********************************************************************
 
 1PDM for each excited state written to RWF  633
 Ground to excited state transition densities written to RWF  633
 Ground to excited state transition electric dipole moments (Au):
       state          X           Y           Z        Dip. S.      Osc.
         1         0.2644      0.0000      0.0000      0.0699      0.0136
         2         0.0000      0.0000      0.0000      0.0000      0.0000
         3         0.0000      0.0000      0.6067      0.3681      0.0947
         4         0.0000      0.4802      0.0000      0.2306      0.0716
         5         0.0000      1.0572      0.0000      1.1177      0.3975
 Ground to excited state transition velocity dipole moments (Au):
       state          X           Y           Z        Dip. S.      Osc.
         1        -0.1710      0.0000      0.0000      0.0292      0.0670
         2         0.0000      0.0000      0.0000      0.0000      0.0000
         3         0.0000      0.0000     -0.3061      0.0937      0.1619
         4         0.0000     -0.2147      0.0000      0.0461      0.0660
         5         0.0000     -0.5818      0.0000      0.3385      0.4230
 Ground to excited state transition magnetic dipole moments (Au):
       state          X           Y           Z
         1         0.0000      0.2266      0.0000
         2         0.0000      0.0000     -0.3356
         3         0.0000      0.0000      0.0000
         4         0.3885      0.0000      0.0000
         5        -0.0712      0.0000      0.0000
 Ground to excited state transition velocity quadrupole moments (Au):
       state          XX          YY          ZZ          XY          XZ          YZ
         1         0.0000      0.0000      0.0000      0.0000      0.1220      0.0000
         2         0.0000      0.0000      0.0000      0.2350      0.0000      0.0000
         3         0.0054      0.1447      0.2743      0.0000      0.0000      0.0000
         4         0.0000      0.0000      0.0000      0.0000      0.0000      0.3166
         5         0.0000      0.0000      0.0000      0.0000      0.0000      0.5302
 <0|del|b> * <b|rxdel|0> + <0|del|b> * <b|delr+rdel|0>
 Rotatory Strengths (R) in cgs (10**-40 erg-esu-cm/Gauss)
       state          XX          YY          ZZ    R(velocity)    E-M Angle
         1         0.0000      0.0000      0.0000      0.0000       90.00
         2         0.0000      0.0000      0.0000      0.0000       90.00
         3         0.0000      0.0000      0.0000      0.0000       90.00
         4         0.0000      0.0000      0.0000      0.0000       90.00
         5         0.0000      0.0000      0.0000      0.0000       90.00
 1/2[<0|r|b>*<b|rxdel|0> + (<0|rxdel|b>*<b|r|0>)*]
 Rotatory Strengths (R) in cgs (10**-40 erg-esu-cm/Gauss)
       state          XX          YY          ZZ     R(length)
         1         0.0000      0.0000      0.0000      0.0000
         2         0.0000      0.0000      0.0000      0.0000
         3         0.0000      0.0000      0.0000      0.0000
         4         0.0000      0.0000      0.0000      0.0000
         5         0.0000      0.0000      0.0000      0.0000
  1/2[<0|del|b>*<b|r|0> + (<0|r|b>*<b|del|0>)*] (Au)
       state          X           Y           Z        Dip. S.   Osc.(frdel)
         1        -0.0452      0.0000      0.0000      0.0452      0.0301
         2         0.0000      0.0000      0.0000      0.0000      0.0000
         3         0.0000      0.0000     -0.1857      0.1857      0.1238
         4         0.0000     -0.1031      0.0000      0.1031      0.0687
         5         0.0000     -0.6151      0.0000      0.6151      0.4100

 Excitation energies and oscillator strengths:
 
 Excited State   1:      Singlet-B1     7.9164 eV  156.62 nm  f=0.0136  <S**2>=0.000
       5 ->  6         0.70715
 This state for optimization and/or second-order correction.
 Total Energy, E(TD-HF/TD-KS) =  -76.1180306423    
 Copying the excited state density for this state as the 1-particle RhoCI density.
 
 Excited State   2:      Singlet-A2     9.9400 eV  124.73 nm  f=0.0000  <S**2>=0.000
       5 ->  7         0.70672
 
 Excited State   3:      Singlet-A1    10.5022 eV  118.06 nm  f=0.0947  <S**2>=0.000
       4 ->  6         0.70163
 
 Excited State   4:      Singlet-B2    12.6788 eV   97.79 nm  f=0.0716  <S**2>=0.000
       3 ->  6        -0.14121
       4 ->  7         0.69224
 
 Excited State   5:      Singlet-B2    14.5160 eV   85.41 nm  f=0.3975  <S**2>=0.000
       3 ->  6         0.69255
       4 ->  7         0.14073
 SavETr:  write IOETrn=   770 NScale= 10 NData=  16 NLR=1 NState=    5 LETran=     100.
 Leave Link  914 at Mon May 27 17:20:37 2019, MaxMem=   131072000 cpu:         0.5
 (Enter /applis/g09/l601.exe)
 Copying SCF densities to generalized density rwf, IOpCl= 0 IROHF=0.

 **********************************************************************

            Population analysis using the SCF density.

 **********************************************************************

 Orbital symmetries:
       Occupied  (A1) (A1) (B2) (A1) (B1)
       Virtual   (A1) (B2) (B2) (A1) (B1) (A1) (B2) (A1) (A1) (A2)
                 (B1) (A1) (B2) (A1)
 The electronic state is 1-A1.
 Alpha  occ. eigenvalues --  -19.13819  -0.99793  -0.51705  -0.37232  -0.29121
 Alpha virt. eigenvalues --    0.06260   0.14811   0.77228   0.86107   0.89077
 Alpha virt. eigenvalues --    0.89514   1.06574   1.19362   1.72895   1.74641
 Alpha virt. eigenvalues --    1.77975   2.28058   2.57704   3.55182
     Molecular Orbital Coefficients:
                           1         2         3         4         5
                        (A1)--O   (A1)--O   (B2)--O   (A1)--O   (B1)--O
     Eigenvalues --   -19.13819  -0.99793  -0.51705  -0.37232  -0.29121
   1 1   O  1S          0.99286  -0.20949   0.00000  -0.08813   0.00000
   2        2S          0.02622   0.46920   0.00000   0.17734   0.00000
   3        2PX         0.00000   0.00000   0.00000   0.00000   0.64459
   4        2PY         0.00000   0.00000   0.51746   0.00000   0.00000
   5        2PZ        -0.00110  -0.12775   0.00000   0.55175   0.00000
   6        3S          0.01011   0.43949   0.00000   0.41055   0.00000
   7        3PX         0.00000   0.00000   0.00000   0.00000   0.50604
   8        3PY         0.00000   0.00000   0.26981   0.00000   0.00000
   9        3PZ         0.00000  -0.06068   0.00000   0.37203   0.00000
  10        4XX        -0.00772  -0.01094   0.00000  -0.00027   0.00000
  11        4YY        -0.00777   0.01876   0.00000   0.00089   0.00000
  12        4ZZ        -0.00775   0.01610   0.00000  -0.05244   0.00000
  13        4XY         0.00000   0.00000   0.00000   0.00000   0.00000
  14        4XZ         0.00000   0.00000   0.00000   0.00000  -0.03545
  15        4YZ         0.00000   0.00000  -0.04129   0.00000   0.00000
  16 2   H  1S          0.00037   0.13916   0.23741  -0.14378   0.00000
  17        2S         -0.00103   0.00645   0.14201  -0.11429   0.00000
  18 3   H  1S          0.00037   0.13916  -0.23741  -0.14378   0.00000
  19        2S         -0.00103   0.00645  -0.14201  -0.11429   0.00000
                           6         7         8         9        10
                        (A1)--V   (B2)--V   (B2)--V   (A1)--V   (B1)--V
     Eigenvalues --     0.06260   0.14811   0.77228   0.86107   0.89077
   1 1   O  1S         -0.10062   0.00000   0.00000   0.03770   0.00000
   2        2S          0.11926   0.00000   0.00000  -0.13335   0.00000
   3        2PX         0.00000   0.00000   0.00000   0.00000  -0.95943
   4        2PY         0.00000  -0.41347  -0.17191   0.00000   0.00000
   5        2PZ        -0.28076   0.00000   0.00000   0.71004   0.00000
   6        3S          1.25766   0.00000   0.00000   0.13210   0.00000
   7        3PX         0.00000   0.00000   0.00000   0.00000   1.03863
   8        3PY         0.00000  -0.75869  -0.43049   0.00000   0.00000
   9        3PZ        -0.47764   0.00000   0.00000  -0.38642   0.00000
  10        4XX        -0.05804   0.00000   0.00000  -0.11841   0.00000
  11        4YY        -0.04508   0.00000   0.00000   0.15369   0.00000
  12        4ZZ        -0.02729   0.00000   0.00000   0.01270   0.00000
  13        4XY         0.00000   0.00000   0.00000   0.00000   0.00000
  14        4XZ         0.00000   0.00000   0.00000   0.00000  -0.01641
  15        4YZ         0.00000   0.01843  -0.19595   0.00000   0.00000
  16 2   H  1S         -0.09622   0.10742   0.84016   0.71004   0.00000
  17        2S         -0.96900   1.27786  -0.65554  -0.55106   0.00000
  18 3   H  1S         -0.09622  -0.10742  -0.84016   0.71004   0.00000
  19        2S         -0.96900  -1.27786   0.65554  -0.55106   0.00000
                          11        12        13        14        15
                        (A1)--V   (B2)--V   (A1)--V   (A1)--V   (A2)--V
     Eigenvalues --     0.89514   1.06574   1.19362   1.72895   1.74641
   1 1   O  1S          0.01062   0.00000  -0.08197   0.00743   0.00000
   2        2S         -0.83734   0.00000  -1.45691   0.09008   0.00000
   3        2PX         0.00000   0.00000   0.00000   0.00000   0.00000
   4        2PY         0.00000  -0.98925   0.00000   0.00000   0.00000
   5        2PZ        -0.55564   0.00000   0.40255  -0.00911   0.00000
   6        3S          1.41218   0.00000   3.59596  -0.25228   0.00000
   7        3PX         0.00000   0.00000   0.00000   0.00000   0.00000
   8        3PY         0.00000   1.62774   0.00000   0.00000   0.00000
   9        3PZ         0.82578   0.00000  -1.10644   0.14356   0.00000
  10        4XX        -0.32814   0.00000  -0.24993  -0.34303   0.00000
  11        4YY        -0.15690   0.00000  -0.65752  -0.59669   0.00000
  12        4ZZ        -0.27701   0.00000  -0.39336   1.00679   0.00000
  13        4XY         0.00000   0.00000   0.00000   0.00000   1.00000
  14        4XZ         0.00000   0.00000   0.00000   0.00000   0.00000
  15        4YZ         0.00000   0.01589   0.00000   0.00000   0.00000
  16 2   H  1S          0.47012   0.01965  -0.35288   0.08163   0.00000
  17        2S         -0.37551  -0.92672  -0.77275   0.04227   0.00000
  18 3   H  1S          0.47012  -0.01965  -0.35288   0.08163   0.00000
  19        2S         -0.37551   0.92672  -0.77275   0.04227   0.00000
                          16        17        18        19
                        (B1)--V   (A1)--V   (B2)--V   (A1)--V
     Eigenvalues --     1.77975   2.28058   2.57704   3.55182
   1 1   O  1S          0.00000  -0.05165   0.00000  -0.46794
   2        2S          0.00000  -0.51505   0.00000   0.28674
   3        2PX         0.00711   0.00000   0.00000   0.00000
   4        2PY         0.00000   0.00000   0.03685   0.00000
   5        2PZ         0.00000   0.06302   0.00000   0.11666
   6        3S          0.00000   1.53940   0.00000   3.68937
   7        3PX         0.03501   0.00000   0.00000   0.00000
   8        3PY         0.00000   0.00000  -0.84173   0.00000
   9        3PZ         0.00000  -0.73967   0.00000  -0.33415
  10        4XX         0.00000  -1.13148   0.00000  -1.57875
  11        4YY         0.00000   0.73536   0.00000  -1.52607
  12        4ZZ         0.00000   0.07177   0.00000  -1.54956
  13        4XY         0.00000   0.00000   0.00000   0.00000
  14        4XZ         0.99924   0.00000   0.00000   0.00000
  15        4YZ         0.00000   0.00000   1.27214   0.00000
  16 2   H  1S          0.00000  -0.81249   0.92333   0.11574
  17        2S          0.00000  -0.14155  -0.05042  -0.55445
  18 3   H  1S          0.00000  -0.81249  -0.92333   0.11574
  19        2S          0.00000  -0.14155   0.05042  -0.55445
     Density Matrix:
                           1         2         3         4         5
   1 1   O  1S          2.07485
   2        2S         -0.17577   0.50457
   3        2PX         0.00000   0.00000   0.83098
   4        2PY         0.00000   0.00000   0.00000   0.53554
   5        2PZ        -0.04592   0.07575   0.00000   0.00000   0.64149
   6        3S         -0.23643   0.55856   0.00000   0.00000   0.34073
   7        3PX         0.00000   0.00000   0.65237   0.00000   0.00000
   8        3PY         0.00000   0.00000   0.00000   0.27923   0.00000
   9        3PZ        -0.04016   0.07501   0.00000   0.00000   0.42604
  10        4XX        -0.01071  -0.01076   0.00000   0.00000   0.00252
  11        4YY        -0.02344   0.01751   0.00000   0.00000  -0.00380
  12        4ZZ        -0.01288  -0.00390   0.00000   0.00000  -0.06196
  13        4XY         0.00000   0.00000   0.00000   0.00000   0.00000
  14        4XZ         0.00000   0.00000  -0.04570   0.00000   0.00000
  15        4YZ         0.00000   0.00000   0.00000  -0.04273   0.00000
  16 2   H  1S         -0.03223   0.07961   0.00000   0.24571  -0.19421
  17        2S          0.01539  -0.03454   0.00000   0.14697  -0.12777
  18 3   H  1S         -0.03223   0.07961   0.00000  -0.24571  -0.19421
  19        2S          0.01539  -0.03454   0.00000  -0.14697  -0.12777
                           6         7         8         9        10
   6        3S          0.72362
   7        3PX         0.00000   0.51215
   8        3PY         0.00000   0.00000   0.14559
   9        3PZ         0.25214   0.00000   0.00000   0.28418
  10        4XX        -0.00999   0.00000   0.00000   0.00113   0.00036
  11        4YY         0.01706   0.00000   0.00000  -0.00162  -0.00029
  12        4ZZ        -0.02907   0.00000   0.00000  -0.04097  -0.00020
  13        4XY         0.00000   0.00000   0.00000   0.00000   0.00000
  14        4XZ         0.00000  -0.03588   0.00000   0.00000   0.00000
  15        4YZ         0.00000   0.00000  -0.02228   0.00000   0.00000
  16 2   H  1S          0.00427   0.00000   0.12811  -0.12387  -0.00297
  17        2S         -0.08820   0.00000   0.07663  -0.08582  -0.00006
  18 3   H  1S          0.00427   0.00000  -0.12811  -0.12387  -0.00297
  19        2S         -0.08820   0.00000  -0.07663  -0.08582  -0.00006
                          11        12        13        14        15
  11        4YY         0.00083
  12        4ZZ         0.00063   0.00614
  13        4XY         0.00000   0.00000   0.00000
  14        4XZ         0.00000   0.00000   0.00000   0.00251
  15        4YZ         0.00000   0.00000   0.00000   0.00000   0.00341
  16 2   H  1S          0.00496   0.01955   0.00000   0.00000  -0.01960
  17        2S          0.00006   0.01221   0.00000   0.00000  -0.01173
  18 3   H  1S          0.00496   0.01955   0.00000   0.00000   0.01960
  19        2S          0.00006   0.01221   0.00000   0.00000   0.01173
                          16        17        18        19
  16 2   H  1S          0.19280
  17        2S          0.10209   0.06655
  18 3   H  1S         -0.03266  -0.03277   0.19280
  19        2S         -0.03277  -0.01412   0.10209   0.06655
    Full Mulliken population analysis:
                           1         2         3         4         5
   1 1   O  1S          2.07485
   2        2S         -0.04108   0.50457
   3        2PX         0.00000   0.00000   0.83098
   4        2PY         0.00000   0.00000   0.00000   0.53554
   5        2PZ         0.00000   0.00000   0.00000   0.00000   0.64149
   6        3S         -0.03955   0.42654   0.00000   0.00000   0.00000
   7        3PX         0.00000   0.00000   0.32718   0.00000   0.00000
   8        3PY         0.00000   0.00000   0.00000   0.14004   0.00000
   9        3PZ         0.00000   0.00000   0.00000   0.00000   0.21367
  10        4XX        -0.00036  -0.00589   0.00000   0.00000   0.00000
  11        4YY        -0.00079   0.00958   0.00000   0.00000   0.00000
  12        4ZZ        -0.00043  -0.00213   0.00000   0.00000   0.00000
  13        4XY         0.00000   0.00000   0.00000   0.00000   0.00000
  14        4XZ         0.00000   0.00000   0.00000   0.00000   0.00000
  15        4YZ         0.00000   0.00000   0.00000   0.00000   0.00000
  16 2   H  1S         -0.00108   0.01921   0.00000   0.05427   0.03376
  17        2S          0.00105  -0.01300   0.00000   0.01708   0.01169
  18 3   H  1S         -0.00108   0.01921   0.00000   0.05427   0.03376
  19        2S          0.00105  -0.01300   0.00000   0.01708   0.01169
                           6         7         8         9        10
   6        3S          0.72362
   7        3PX         0.00000   0.51215
   8        3PY         0.00000   0.00000   0.14559
   9        3PZ         0.00000   0.00000   0.00000   0.28418
  10        4XX        -0.00698   0.00000   0.00000   0.00000   0.00036
  11        4YY         0.01192   0.00000   0.00000   0.00000  -0.00010
  12        4ZZ        -0.02032   0.00000   0.00000   0.00000  -0.00007
  13        4XY         0.00000   0.00000   0.00000   0.00000   0.00000
  14        4XZ         0.00000   0.00000   0.00000   0.00000   0.00000
  15        4YZ         0.00000   0.00000   0.00000   0.00000   0.00000
  16 2   H  1S          0.00180   0.00000   0.05857   0.04456  -0.00048
  17        2S         -0.05986   0.00000   0.02908   0.02562  -0.00003
  18 3   H  1S          0.00180   0.00000   0.05857   0.04456  -0.00048
  19        2S         -0.05986   0.00000   0.02908   0.02562  -0.00003
                          11        12        13        14        15
  11        4YY         0.00083
  12        4ZZ         0.00021   0.00614
  13        4XY         0.00000   0.00000   0.00000
  14        4XZ         0.00000   0.00000   0.00000   0.00251
  15        4YZ         0.00000   0.00000   0.00000   0.00000   0.00341
  16 2   H  1S          0.00199   0.00606   0.00000   0.00000   0.00636
  17        2S          0.00002   0.00517   0.00000   0.00000   0.00071
  18 3   H  1S          0.00199   0.00606   0.00000   0.00000   0.00636
  19        2S          0.00002   0.00517   0.00000   0.00000   0.00071
                          16        17        18        19
  16 2   H  1S          0.19280
  17        2S          0.06721   0.06655
  18 3   H  1S         -0.00164  -0.00728   0.19280
  19        2S         -0.00728  -0.00724   0.06721   0.06655
     Gross orbital populations:
                           1
   1 1   O  1S          1.99259
   2        2S          0.90400
   3        2PX         1.15816
   4        2PY         0.81829
   5        2PZ         0.94604
   6        3S          0.97910
   7        3PX         0.83933
   8        3PY         0.46093
   9        3PZ         0.63823
  10        4XX        -0.01405
  11        4YY         0.02568
  12        4ZZ         0.00587
  13        4XY         0.00000
  14        4XZ         0.00251
  15        4YZ         0.01756
  16 2   H  1S          0.47611
  17        2S          0.13677
  18 3   H  1S          0.47611
  19        2S          0.13677
          Condensed to atoms (all electrons):
               1          2          3
     1  O    8.289110   0.242563   0.242563
     2  H    0.242563   0.393759  -0.023439
     3  H    0.242563  -0.023439   0.393759
 Mulliken charges:
               1
     1  O   -0.774236
     2  H    0.387118
     3  H    0.387118
 Sum of Mulliken charges =   0.00000
 Mulliken charges with hydrogens summed into heavy atoms:
               1
     1  O    0.000000
 Electronic spatial extent (au):  <R**2>=             19.1865
 Charge=              0.0000 electrons
 Dipole moment (field-independent basis, Debye):
    X=              0.0000    Y=              0.0000    Z=             -2.0961  Tot=              2.0961
 Quadrupole moment (field-independent basis, Debye-Ang):
   XX=             -7.2039   YY=             -4.2888   ZZ=             -5.9885
   XY=              0.0000   XZ=              0.0000   YZ=              0.0000
 Traceless Quadrupole moment (field-independent basis, Debye-Ang):
   XX=             -1.3768   YY=              1.5383   ZZ=             -0.1615
   XY=              0.0000   XZ=              0.0000   YZ=              0.0000
 Octapole moment (field-independent basis, Debye-Ang**2):
  XXX=              0.0000  YYY=              0.0000  ZZZ=             -1.2180  XYY=              0.0000
  XXY=              0.0000  XXZ=             -0.3237  XZZ=              0.0000  YZZ=              0.0000
  YYZ=             -1.2126  XYZ=              0.0000
 Hexadecapole moment (field-independent basis, Debye-Ang**3):
 XXXX=             -5.2143 YYYY=             -6.0624 ZZZZ=             -6.2955 XXXY=              0.0000
 XXXZ=              0.0000 YYYX=              0.0000 YYYZ=              0.0000 ZZZX=              0.0000
 ZZZY=              0.0000 XXYY=             -2.1172 XXZZ=             -1.9683 YYZZ=             -1.7415
 XXYZ=              0.0000 YYXZ=              0.0000 ZZXY=              0.0000
 N-N= 9.087844456835D+00 E-N=-1.987558652207D+02  KE= 7.581967966885D+01
 Symmetry A1   KE= 6.765907420648D+01
 Symmetry A2   KE= 4.944677349671D-35
 Symmetry B1   KE= 4.599987423176D+00
 Symmetry B2   KE= 3.560618039194D+00
 Orbital energies and kinetic energies (alpha):
                                 1                 2
   1         (A1)--O         -19.138194         29.031301
   2         (A1)--O          -0.997930          2.574021
   3         (B2)--O          -0.517054          1.780309
   4         (A1)--O          -0.372320          2.224214
   5         (B1)--O          -0.291207          2.299994
   6         (A1)--V           0.062595          1.172336
   7         (B2)--V           0.148109          1.258587
   8         (B2)--V           0.772278          2.074763
   9         (A1)--V           0.861070          3.373898
  10         (B1)--V           0.890768          3.552154
  11         (A1)--V           0.895139          2.596561
  12         (B2)--V           1.065741          3.744532
  13         (A1)--V           1.193624          2.393746
  14         (A1)--V           1.728949          2.790868
  15         (A2)--V           1.746410          2.800000
  16         (B1)--V           1.779746          2.797041
  17         (A1)--V           2.280576          3.466380
  18         (B2)--V           2.577040          3.889735
  19         (A1)--V           3.551820          9.847319
 Total kinetic energy from orbitals= 7.581967966885D+01
 Leave Link  601 at Mon May 27 17:20:37 2019, MaxMem=   131072000 cpu:         0.0
 (Enter /applis/g09/l9999.exe)
 1\1\GINC-MOLTECH-CALC0\SP\RB3LYP TD-FC\6-31G(d)\H2O1\TCAUCHY\27-May-20
 19\0\\#P TD(nstates=5) guess=read geom=allcheck B3LYP 6-31G* Direct gf
 print pop=(full)\\OPT H20 B3LYP 6-31G*\\0,1\O,0,0.,0.,-0.1006369329\H,
 0,0.,0.7612827676,-0.6996815335\H,0,0.,-0.7612827676,-0.6996815335\\Ve
 rsion=EM64L-G09RevD.01\State=1-A1\HF=-76.4089533\RMSD=6.419e-10\PG=C02
 V [C2(O1),SGV(H2)]\\@


 SI MONUMENTUM REQUIRIS, CIRCUMSPICE
     -- FROM SIR CHRISTOPHER WREN'S TOMBSTONE
 Job cpu time:       0 days  0 hours  0 minutes  1.2 seconds.
 File lengths (MBytes):  RWF=      5 Int=      0 D2E=      0 Chk=      1 Scr=      1
 ------ Artificial cut here 

