 Entering Gaussian System, Link 0=g09
 Input=H2O_SPminus.inp
 Output=H2O_SPminus.log
 Initial command:
 /applis/g09/l1.exe "/tmp/Gau-12139.inp" -scrdir="/tmp/"
 Entering Link 1 = /applis/g09/l1.exe PID=     12141.
  
 Copyright (c) 1988,1990,1992,1993,1995,1998,2003,2009,2013,
            Gaussian, Inc.  All Rights Reserved.
  
 This is part of the Gaussian(R) 09 program.  It is based on
 the Gaussian(R) 03 system (copyright 2003, Gaussian, Inc.),
 the Gaussian(R) 98 system (copyright 1998, Gaussian, Inc.),
 the Gaussian(R) 94 system (copyright 1995, Gaussian, Inc.),
 the Gaussian 92(TM) system (copyright 1992, Gaussian, Inc.),
 the Gaussian 90(TM) system (copyright 1990, Gaussian, Inc.),
 the Gaussian 88(TM) system (copyright 1988, Gaussian, Inc.),
 the Gaussian 86(TM) system (copyright 1986, Carnegie Mellon
 University), and the Gaussian 82(TM) system (copyright 1983,
 Carnegie Mellon University). Gaussian is a federally registered
 trademark of Gaussian, Inc.
  
 This software contains proprietary and confidential information,
 including trade secrets, belonging to Gaussian, Inc.
  
 This software is provided under written license and may be
 used, copied, transmitted, or stored only in accord with that
 written license.
  
 The following legend is applicable only to US Government
 contracts under FAR:
  
                    RESTRICTED RIGHTS LEGEND
  
 Use, reproduction and disclosure by the US Government is
 subject to restrictions as set forth in subparagraphs (a)
 and (c) of the Commercial Computer Software - Restricted
 Rights clause in FAR 52.227-19.
  
 Gaussian, Inc.
 340 Quinnipiac St., Bldg. 40, Wallingford CT 06492
  
  
 ---------------------------------------------------------------
 Warning -- This program may not be used in any manner that
 competes with the business of Gaussian, Inc. or will provide
 assistance to any competitor of Gaussian, Inc.  The licensee
 of this program is prohibited from giving any competitor of
 Gaussian, Inc. access to this program.  By using this program,
 the user acknowledges that Gaussian, Inc. is engaged in the
 business of creating and licensing software in the field of
 computational chemistry and represents and warrants to the
 licensee that it is not a competitor of Gaussian, Inc. and that
 it will not use this program in any manner prohibited above.
 ---------------------------------------------------------------
  

 Cite this work as:
 Gaussian 09, Revision D.01,
 M. J. Frisch, G. W. Trucks, H. B. Schlegel, G. E. Scuseria, 
 M. A. Robb, J. R. Cheeseman, G. Scalmani, V. Barone, B. Mennucci, 
 G. A. Petersson, H. Nakatsuji, M. Caricato, X. Li, H. P. Hratchian, 
 A. F. Izmaylov, J. Bloino, G. Zheng, J. L. Sonnenberg, M. Hada, 
 M. Ehara, K. Toyota, R. Fukuda, J. Hasegawa, M. Ishida, T. Nakajima, 
 Y. Honda, O. Kitao, H. Nakai, T. Vreven, J. A. Montgomery, Jr., 
 J. E. Peralta, F. Ogliaro, M. Bearpark, J. J. Heyd, E. Brothers, 
 K. N. Kudin, V. N. Staroverov, T. Keith, R. Kobayashi, J. Normand, 
 K. Raghavachari, A. Rendell, J. C. Burant, S. S. Iyengar, J. Tomasi, 
 M. Cossi, N. Rega, J. M. Millam, M. Klene, J. E. Knox, J. B. Cross, 
 V. Bakken, C. Adamo, J. Jaramillo, R. Gomperts, R. E. Stratmann, 
 O. Yazyev, A. J. Austin, R. Cammi, C. Pomelli, J. W. Ochterski, 
 R. L. Martin, K. Morokuma, V. G. Zakrzewski, G. A. Voth, 
 P. Salvador, J. J. Dannenberg, S. Dapprich, A. D. Daniels, 
 O. Farkas, J. B. Foresman, J. V. Ortiz, J. Cioslowski, 
 and D. J. Fox, Gaussian, Inc., Wallingford CT, 2013.
 
 ******************************************
 Gaussian 09:  EM64L-G09RevD.01 24-Apr-2013
                27-May-2019 
 ******************************************
 %Chk=SPminus
 %nprocshared=1
 Will use up to    1 processors via shared memory.
 %mem=1000MB
 ------------------------------------------------------------------
 #P B3LYP SP 6-31G* guess=read geom=check Direct gfprint pop=(full)
 ------------------------------------------------------------------
 1/29=2,38=1/1;
 2/12=2,40=1/2;
 3/5=1,6=6,7=1,11=2,14=-4,16=1,24=100,25=1,30=1,74=-5,116=-2/1,2,3;
 4/5=1/1;
 5/5=2,38=6/2;
 6/7=3,28=1/1;
 99/5=1,9=1/99;
 Leave Link    1 at Mon May 27 17:20:14 2019, MaxMem=   131072000 cpu:         0.0
 (Enter /applis/g09/l101.exe)
 --------------------
 OPT H20 B3LYP 6-31G*
 --------------------
 Structure from the checkpoint file:  "SPminus.chk"
 Charge = -1 Multiplicity = 2
 Redundant internal coordinates found in file.
 O,0,0.,0.,-0.1006369329
 H,0,0.,0.7612827676,-0.6996815335
 H,0,0.,-0.7612827676,-0.6996815335
 Recover connectivity data from disk.
 NAtoms=      3 NQM=        3 NQMF=       0 NMMI=      0 NMMIF=      0
                NMic=       0 NMicF=      0.
                    Isotopes and Nuclear Properties:
 (Nuclear quadrupole moments (NQMom) in fm**2, nuclear magnetic moments (NMagM)
  in nuclear magnetons)

  Atom         1           2           3
 IAtWgt=          16           1           1
 AtmWgt=  15.9949146   1.0078250   1.0078250
 NucSpn=           0           1           1
 AtZEff=  -5.6000000  -1.0000000  -1.0000000
 NQMom=    0.0000000   0.0000000   0.0000000
 NMagM=    0.0000000   2.7928460   2.7928460
 AtZNuc=   8.0000000   1.0000000   1.0000000
 Leave Link  101 at Mon May 27 17:20:14 2019, MaxMem=   131072000 cpu:         0.1
 (Enter /applis/g09/l202.exe)
                          Input orientation:                          
 ---------------------------------------------------------------------
 Center     Atomic      Atomic             Coordinates (Angstroms)
 Number     Number       Type             X           Y           Z
 ---------------------------------------------------------------------
      1          8           0        0.000000    0.000000   -0.100637
      2          1           0        0.000000    0.761283   -0.699682
      3          1           0        0.000000   -0.761283   -0.699682
 ---------------------------------------------------------------------
                    Distance matrix (angstroms):
                    1          2          3
     1  O    0.000000
     2  H    0.968714   0.000000
     3  H    0.968714   1.522566   0.000000
 Stoichiometry    H2O(1-,2)
 Framework group  C2V[C2(O),SGV(H2)]
 Deg. of freedom     2
 Full point group                 C2V     NOp   4
 RotChk:  IX=0 Diff= 3.87D-16
 Largest Abelian subgroup         C2V     NOp   4
 Largest concise Abelian subgroup C2      NOp   2
                         Standard orientation:                         
 ---------------------------------------------------------------------
 Center     Atomic      Atomic             Coordinates (Angstroms)
 Number     Number       Type             X           Y           Z
 ---------------------------------------------------------------------
      1          8           0        0.000000    0.000000    0.119809
      2          1           0        0.000000    0.761283   -0.479236
      3          1           0        0.000000   -0.761283   -0.479236
 ---------------------------------------------------------------------
 Rotational constants (GHZ):    786.7362194    432.6234524    279.1305529
 Leave Link  202 at Mon May 27 17:20:14 2019, MaxMem=   131072000 cpu:         0.0
 (Enter /applis/g09/l301.exe)
 Standard basis: 6-31G(d) (6D, 7F)
 Ernie: Thresh=  0.10000D-02 Tol=  0.10000D-05 Strict=F.
 AO basis set (Overlap normalization):
 Atom O1       Shell     1 S   6     bf    1 -     1          0.000000000000          0.000000000000          0.226406047306
      0.5484671660D+04  0.1831074430D-02
      0.8252349460D+03  0.1395017220D-01
      0.1880469580D+03  0.6844507810D-01
      0.5296450000D+02  0.2327143360D+00
      0.1689757040D+02  0.4701928980D+00
      0.5799635340D+01  0.3585208530D+00
 Atom O1       Shell     2 SP   3    bf    2 -     5          0.000000000000          0.000000000000          0.226406047306
      0.1553961625D+02 -0.1107775495D+00  0.7087426823D-01
      0.3599933586D+01 -0.1480262627D+00  0.3397528391D+00
      0.1013761750D+01  0.1130767015D+01  0.7271585773D+00
 Atom O1       Shell     3 SP   1    bf    6 -     9          0.000000000000          0.000000000000          0.226406047306
      0.2700058226D+00  0.1000000000D+01  0.1000000000D+01
 Atom O1       Shell     4 D   1     bf   10 -    15          0.000000000000          0.000000000000          0.226406047306
      0.8000000000D+00  0.1000000000D+01
 Atom H2       Shell     5 S   3     bf   16 -    16          0.000000000000          1.438615940459         -0.905624189222
      0.1873113696D+02  0.3349460434D-01
      0.2825394365D+01  0.2347269535D+00
      0.6401216923D+00  0.8137573261D+00
 Atom H2       Shell     6 S   1     bf   17 -    17          0.000000000000          1.438615940459         -0.905624189222
      0.1612777588D+00  0.1000000000D+01
 Atom H3       Shell     7 S   3     bf   18 -    18          0.000000000000         -1.438615940459         -0.905624189222
      0.1873113696D+02  0.3349460434D-01
      0.2825394365D+01  0.2347269535D+00
      0.6401216923D+00  0.8137573261D+00
 Atom H3       Shell     8 S   1     bf   19 -    19          0.000000000000         -1.438615940459         -0.905624189222
      0.1612777588D+00  0.1000000000D+01
 There are    10 symmetry adapted cartesian basis functions of A1  symmetry.
 There are     1 symmetry adapted cartesian basis functions of A2  symmetry.
 There are     3 symmetry adapted cartesian basis functions of B1  symmetry.
 There are     5 symmetry adapted cartesian basis functions of B2  symmetry.
 There are    10 symmetry adapted basis functions of A1  symmetry.
 There are     1 symmetry adapted basis functions of A2  symmetry.
 There are     3 symmetry adapted basis functions of B1  symmetry.
 There are     5 symmetry adapted basis functions of B2  symmetry.
    19 basis functions,    36 primitive gaussians,    19 cartesian basis functions
     6 alpha electrons        5 beta electrons
       nuclear repulsion energy         9.0878444568 Hartrees.
 IExCor=  402 DFT=T Ex+Corr=B3LYP ExCW=0 ScaHFX=  0.200000
 ScaDFX=  0.800000  0.720000  1.000000  0.810000 ScalE2=  1.000000  1.000000
 IRadAn=      0 IRanWt=     -1 IRanGd=            0 ICorTp=0 IEmpDi=  4
 NAtoms=    3 NActive=    3 NUniq=    2 SFac= 2.25D+00 NAtFMM=   60 NAOKFM=F Big=F
 Integral buffers will be    131072 words long.
 Raffenetti 2 integral format.
 Two-electron integral symmetry is turned on.
 Leave Link  301 at Mon May 27 17:20:14 2019, MaxMem=   131072000 cpu:         0.0
 (Enter /applis/g09/l302.exe)
 NPDir=0 NMtPBC=     1 NCelOv=     1 NCel=       1 NClECP=     1 NCelD=      1
         NCelK=      1 NCelE2=     1 NClLst=     1 CellRange=     0.0.
 One-electron integrals computed using PRISM.
 One-electron integral symmetry used in STVInt
 NBasis=    19 RedAO= T EigKep=  4.23D-02  NBF=    10     1     3     5
 NBsUse=    19 1.00D-06 EigRej= -1.00D+00 NBFU=    10     1     3     5
 Precomputing XC quadrature grid using
 IXCGrd= 4 IRadAn=           0 IRanWt=          -1 IRanGd=           0 AccXCQ= 0.00D+00.
 Generated NRdTot=       0 NPtTot=           0 NUsed=           0 NTot=          32
 NSgBfM=    19    19    19    19    19 MxSgAt=     3 MxSgA2=     3.
 Leave Link  302 at Mon May 27 17:20:14 2019, MaxMem=   131072000 cpu:         0.1
 (Enter /applis/g09/l303.exe)
 DipDrv:  MaxL=1.
 Leave Link  303 at Mon May 27 17:20:14 2019, MaxMem=   131072000 cpu:         0.0
 (Enter /applis/g09/l401.exe)
 Initial guess from the checkpoint file:  "SPminus.chk"
 B after Tr=     0.000000    0.000000    0.000000
         Rot=    1.000000    0.000000    0.000000    0.000000 Ang=   0.00 deg.
 Guess basis will be translated and rotated to current coordinates.
 JPrj=2 DoOrth=T DoCkMO=T.
 Initial guess orbital symmetries:
 Alpha Orbitals:
       Occupied  (A1) (A1) (B2) (A1) (B1) (A1)
       Virtual   (B2) (B2) (A1) (B1) (A1) (B2) (A1) (A1) (A2) (B1)
                 (A1) (B2) (A1)
 Beta  Orbitals:
       Occupied  (A1) (A1) (B2) (A1) (B1)
       Virtual   (A1) (B2) (B2) (A1) (B1) (A1) (B2) (A1) (A1) (A2)
                 (B1) (A1) (B2) (A1)
 The electronic state of the initial guess is 2-A1.
 Initial guess <Sx>= 0.0000 <Sy>= 0.0000 <Sz>= 0.5000 <S**2>= 0.7500 S= 0.5000
 Leave Link  401 at Mon May 27 17:20:14 2019, MaxMem=   131072000 cpu:         0.1
 (Enter /applis/g09/l502.exe)
 UHF open shell SCF:
 Using DIIS extrapolation, IDIIS=  1040.
 Integral symmetry usage will be decided dynamically.
 Keep R1 and R2 ints in memory in symmetry-blocked form, NReq=898557.
 IVT=       20213 IEndB=       20213 NGot=   131072000 MDV=   131040029
 LenX=   131040029 LenY=   131039147
 Requested convergence on RMS density matrix=1.00D-08 within 128 cycles.
 Requested convergence on MAX density matrix=1.00D-06.
 Requested convergence on             energy=1.00D-06.
 No special actions if energy rises.
 FoFCou: FMM=F IPFlag=           0 FMFlag=           0 FMFlg1=           0
         NFxFlg=           0 DoJE=F BraDBF=F KetDBF=F FulRan=T
         wScrn=  0.000000 ICntrl=     600 IOpCl=  0 I1Cent=           0 NGrid=           0
         NMat0=    1 NMatS0=    190 NMatT0=    0 NMatD0=    1 NMtDS0=    0 NMtDT0=    0
 Petite list used in FoFCou.

 Cycle   1  Pass 1  IDiag  1:
 E= -76.2315302551740    
 DIIS: error= 2.74D-02 at cycle   1 NSaved=   1.
 NSaved= 1 IEnMin= 1 EnMin= -76.2315302551740     IErMin= 1 ErrMin= 2.74D-02
 ErrMax= 2.74D-02  0.00D+00 EMaxC= 1.00D-01 BMatC= 5.47D-02 BMatP= 5.47D-02
 IDIUse=3 WtCom= 7.26D-01 WtEn= 2.74D-01
 Coeff-Com:  0.100D+01
 Coeff-En:   0.100D+01
 Coeff:      0.100D+01
 Gap=     0.138 Goal=   None    Shift=    0.000
 Gap=     0.300 Goal=   None    Shift=    0.000
 GapD=    0.138 DampG=1.000 DampE=0.500 DampFc=0.5000 IDamp=-1.
 Damping current iteration by 5.00D-01
 RMSDP=2.47D-02 MaxDP=3.60D-01              OVMax= 7.47D-02

 Cycle   2  Pass 1  IDiag  1:
 E= -76.2371151348969     Delta-E=       -0.005584879723 Rises=F Damp=T
 DIIS: error= 8.37D-03 at cycle   2 NSaved=   2.
 NSaved= 2 IEnMin= 2 EnMin= -76.2371151348969     IErMin= 2 ErrMin= 8.37D-03
 ErrMax= 8.37D-03  0.00D+00 EMaxC= 1.00D-01 BMatC= 5.52D-03 BMatP= 5.47D-02
 IDIUse=3 WtCom= 9.16D-01 WtEn= 8.37D-02
 Coeff-Com:  0.752D-01 0.925D+00
 Coeff-En:   0.593D-02 0.994D+00
 Coeff:      0.694D-01 0.931D+00
 Gap=     0.136 Goal=   None    Shift=    0.000
 Gap=     0.336 Goal=   None    Shift=    0.000
 RMSDP=5.08D-03 MaxDP=7.06D-02 DE=-5.58D-03 OVMax= 3.78D-02

 Cycle   3  Pass 1  IDiag  1:
 E= -76.2437848834132     Delta-E=       -0.006669748516 Rises=F Damp=F
 DIIS: error= 4.38D-03 at cycle   3 NSaved=   3.
 NSaved= 3 IEnMin= 3 EnMin= -76.2437848834132     IErMin= 3 ErrMin= 4.38D-03
 ErrMax= 4.38D-03  0.00D+00 EMaxC= 1.00D-01 BMatC= 1.72D-03 BMatP= 5.52D-03
 IDIUse=3 WtCom= 9.56D-01 WtEn= 4.38D-02
 Coeff-Com: -0.493D-01 0.352D+00 0.698D+00
 Coeff-En:   0.000D+00 0.000D+00 0.100D+01
 Coeff:     -0.472D-01 0.336D+00 0.711D+00
 Gap=     0.137 Goal=   None    Shift=    0.000
 Gap=     0.330 Goal=   None    Shift=    0.000
 RMSDP=1.07D-03 MaxDP=1.44D-02 DE=-6.67D-03 OVMax= 7.94D-03

 Cycle   4  Pass 1  IDiag  1:
 E= -76.2440957418573     Delta-E=       -0.000310858444 Rises=F Damp=F
 DIIS: error= 7.35D-04 at cycle   4 NSaved=   4.
 NSaved= 4 IEnMin= 4 EnMin= -76.2440957418573     IErMin= 4 ErrMin= 7.35D-04
 ErrMax= 7.35D-04  0.00D+00 EMaxC= 1.00D-01 BMatC= 3.40D-05 BMatP= 1.72D-03
 IDIUse=3 WtCom= 9.93D-01 WtEn= 7.35D-03
 Coeff-Com:  0.353D-02-0.141D-01 0.957D-01 0.915D+00
 Coeff-En:   0.000D+00 0.000D+00 0.000D+00 0.100D+01
 Coeff:      0.350D-02-0.140D-01 0.950D-01 0.916D+00
 Gap=     0.137 Goal=   None    Shift=    0.000
 Gap=     0.332 Goal=   None    Shift=    0.000
 RMSDP=1.37D-04 MaxDP=1.39D-03 DE=-3.11D-04 OVMax= 1.35D-03

 Cycle   5  Pass 1  IDiag  1:
 E= -76.2441024387980     Delta-E=       -0.000006696941 Rises=F Damp=F
 DIIS: error= 6.96D-05 at cycle   5 NSaved=   5.
 NSaved= 5 IEnMin= 5 EnMin= -76.2441024387980     IErMin= 5 ErrMin= 6.96D-05
 ErrMax= 6.96D-05  0.00D+00 EMaxC= 1.00D-01 BMatC= 1.18D-07 BMatP= 3.40D-05
 IDIUse=1 WtCom= 1.00D+00 WtEn= 0.00D+00
 Coeff-Com: -0.480D-03-0.169D-02-0.178D-01-0.839D-01 0.110D+01
 Coeff:     -0.480D-03-0.169D-02-0.178D-01-0.839D-01 0.110D+01
 Gap=     0.137 Goal=   None    Shift=    0.000
 Gap=     0.332 Goal=   None    Shift=    0.000
 RMSDP=2.10D-05 MaxDP=2.10D-04 DE=-6.70D-06 OVMax= 2.08D-04

 Cycle   6  Pass 1  IDiag  1:
 E= -76.2441025005354     Delta-E=       -0.000000061737 Rises=F Damp=F
 DIIS: error= 1.17D-05 at cycle   6 NSaved=   6.
 NSaved= 6 IEnMin= 6 EnMin= -76.2441025005354     IErMin= 6 ErrMin= 1.17D-05
 ErrMax= 1.17D-05  0.00D+00 EMaxC= 1.00D-01 BMatC= 2.99D-09 BMatP= 1.18D-07
 IDIUse=1 WtCom= 1.00D+00 WtEn= 0.00D+00
 Coeff-Com:  0.199D-04 0.619D-03 0.229D-02 0.630D-02-0.222D+00 0.121D+01
 Coeff:      0.199D-04 0.619D-03 0.229D-02 0.630D-02-0.222D+00 0.121D+01
 Gap=     0.137 Goal=   None    Shift=    0.000
 Gap=     0.332 Goal=   None    Shift=    0.000
 RMSDP=3.05D-06 MaxDP=2.85D-05 DE=-6.17D-08 OVMax= 4.05D-05

 Cycle   7  Pass 1  IDiag  1:
 E= -76.2441025025355     Delta-E=       -0.000000002000 Rises=F Damp=F
 DIIS: error= 1.88D-06 at cycle   7 NSaved=   7.
 NSaved= 7 IEnMin= 7 EnMin= -76.2441025025355     IErMin= 7 ErrMin= 1.88D-06
 ErrMax= 1.88D-06  0.00D+00 EMaxC= 1.00D-01 BMatC= 1.34D-10 BMatP= 2.99D-09
 IDIUse=1 WtCom= 1.00D+00 WtEn= 0.00D+00
 Coeff-Com:  0.191D-04-0.952D-04 0.123D-03 0.113D-02 0.257D-01-0.312D+00
 Coeff-Com:  0.129D+01
 Coeff:      0.191D-04-0.952D-04 0.123D-03 0.113D-02 0.257D-01-0.312D+00
 Coeff:      0.129D+01
 Gap=     0.137 Goal=   None    Shift=    0.000
 Gap=     0.332 Goal=   None    Shift=    0.000
 RMSDP=5.78D-07 MaxDP=4.77D-06 DE=-2.00D-09 OVMax= 6.46D-06

 Cycle   8  Pass 1  IDiag  1:
 E= -76.2441025026106     Delta-E=       -0.000000000075 Rises=F Damp=F
 DIIS: error= 2.99D-07 at cycle   8 NSaved=   8.
 NSaved= 8 IEnMin= 8 EnMin= -76.2441025026106     IErMin= 8 ErrMin= 2.99D-07
 ErrMax= 2.99D-07  0.00D+00 EMaxC= 1.00D-01 BMatC= 3.00D-12 BMatP= 1.34D-10
 IDIUse=1 WtCom= 1.00D+00 WtEn= 0.00D+00
 Coeff-Com: -0.647D-05 0.112D-04-0.627D-04-0.193D-03 0.563D-03 0.201D-01
 Coeff-Com: -0.188D+00 0.117D+01
 Coeff:     -0.647D-05 0.112D-04-0.627D-04-0.193D-03 0.563D-03 0.201D-01
 Coeff:     -0.188D+00 0.117D+01
 Gap=     0.137 Goal=   None    Shift=    0.000
 Gap=     0.332 Goal=   None    Shift=    0.000
 RMSDP=1.45D-07 MaxDP=2.15D-06 DE=-7.51D-11 OVMax= 7.40D-07

 Cycle   9  Pass 1  IDiag  1:
 E= -76.2441025026117     Delta-E=       -0.000000000001 Rises=F Damp=F
 DIIS: error= 2.20D-08 at cycle   9 NSaved=   9.
 NSaved= 9 IEnMin= 9 EnMin= -76.2441025026117     IErMin= 9 ErrMin= 2.20D-08
 ErrMax= 2.20D-08  0.00D+00 EMaxC= 1.00D-01 BMatC= 1.97D-14 BMatP= 3.00D-12
 IDIUse=1 WtCom= 1.00D+00 WtEn= 0.00D+00
 Coeff-Com:  0.776D-06-0.416D-06 0.766D-05 0.113D-04-0.452D-03 0.165D-02
 Coeff-Com:  0.669D-02-0.181D+00 0.117D+01
 Coeff:      0.776D-06-0.416D-06 0.766D-05 0.113D-04-0.452D-03 0.165D-02
 Coeff:      0.669D-02-0.181D+00 0.117D+01
 Gap=     0.137 Goal=   None    Shift=    0.000
 Gap=     0.332 Goal=   None    Shift=    0.000
 RMSDP=1.13D-08 MaxDP=1.06D-07 DE=-1.11D-12 OVMax= 8.80D-08

 Cycle  10  Pass 1  IDiag  1:
 E= -76.2441025026117     Delta-E=        0.000000000000 Rises=F Damp=F
 DIIS: error= 1.55D-09 at cycle  10 NSaved=  10.
 NSaved=10 IEnMin=10 EnMin= -76.2441025026117     IErMin=10 ErrMin= 1.55D-09
 ErrMax= 1.55D-09  0.00D+00 EMaxC= 1.00D-01 BMatC= 1.28D-16 BMatP= 1.97D-14
 IDIUse=1 WtCom= 1.00D+00 WtEn= 0.00D+00
 Coeff-Com: -0.196D-07-0.326D-07-0.180D-06 0.564D-06 0.399D-04-0.329D-03
 Coeff-Com:  0.988D-03 0.991D-02-0.139D+00 0.113D+01
 Coeff:     -0.196D-07-0.326D-07-0.180D-06 0.564D-06 0.399D-04-0.329D-03
 Coeff:      0.988D-03 0.991D-02-0.139D+00 0.113D+01
 Gap=     0.137 Goal=   None    Shift=    0.000
 Gap=     0.332 Goal=   None    Shift=    0.000
 RMSDP=7.71D-10 MaxDP=8.95D-09 DE=-2.84D-14 OVMax= 3.85D-09

 SCF Done:  E(UB3LYP) =  -76.2441025026     A.U. after   10 cycles
            NFock= 10  Conv=0.77D-09     -V/T= 1.9982
 <Sx>= 0.0000 <Sy>= 0.0000 <Sz>= 0.5000 <S**2>= 0.7514 S= 0.5007
 <L.S>= 0.000000000000E+00
 KE= 7.638520073478D+01 PE=-2.024910102633D+02 EE= 4.077386256909D+01
 Annihilation of the first spin contaminant:
 S**2 before annihilation     0.7514,   after     0.7500
 Leave Link  502 at Mon May 27 17:20:14 2019, MaxMem=   131072000 cpu:         0.4
 (Enter /applis/g09/l601.exe)
 Copying SCF densities to generalized density rwf, IOpCl= 1 IROHF=0.

 **********************************************************************

            Population analysis using the SCF density.

 **********************************************************************

 Orbital symmetries:
 Alpha Orbitals:
       Occupied  (A1) (A1) (B2) (A1) (B1) (A1)
       Virtual   (B2) (B2) (A1) (B1) (A1) (B2) (A1) (A1) (A2) (B1)
                 (A1) (B2) (A1)
 Beta  Orbitals:
       Occupied  (A1) (A1) (B2) (A1) (B1)
       Virtual   (A1) (B2) (B2) (A1) (B1) (A1) (B2) (A1) (A1) (A2)
                 (B1) (A1) (B2) (A1)
 The electronic state is 2-A1.
 Alpha  occ. eigenvalues --  -18.78404  -0.66276  -0.18282  -0.05991   0.03194
 Alpha  occ. eigenvalues --    0.27049
 Alpha virt. eigenvalues --    0.40777   1.08813   1.16378   1.19494   1.19585
 Alpha virt. eigenvalues --    1.36515   1.50730   2.05349   2.07238   2.10164
 Alpha virt. eigenvalues --    2.60487   2.89984   3.86262
  Beta  occ. eigenvalues --  -18.77525  -0.64109  -0.17075  -0.04417   0.04046
  Beta virt. eigenvalues --    0.37210   0.45384   1.09932   1.17773   1.20394
  Beta virt. eigenvalues --    1.22035   1.37781   1.52069   2.06165   2.07305
  Beta virt. eigenvalues --    2.10916   2.61181   2.91274   3.87308
     Alpha Molecular Orbital Coefficients:
                           1         2         3         4         5
                        (A1)--O   (A1)--O   (B2)--O   (A1)--O   (B1)--O
     Eigenvalues --   -18.78404  -0.66276  -0.18282  -0.05991   0.03194
   1 1   O  1S          0.99278  -0.21129   0.00000  -0.08391   0.00000
   2        2S          0.02634   0.47359   0.00000   0.13543   0.00000
   3        2PX         0.00000   0.00000   0.00000   0.00000   0.62665
   4        2PY         0.00000   0.00000   0.50188   0.00000   0.00000
   5        2PZ        -0.00064  -0.11881   0.00000   0.54685   0.00000
   6        3S          0.01058   0.43842   0.00000   0.46938   0.00000
   7        3PX         0.00000   0.00000   0.00000   0.00000   0.52560
   8        3PY         0.00000   0.00000   0.25717   0.00000   0.00000
   9        3PZ        -0.00024  -0.04047   0.00000   0.37581   0.00000
  10        4XX        -0.00789  -0.00934   0.00000  -0.01351   0.00000
  11        4YY        -0.00793   0.01705   0.00000  -0.01339   0.00000
  12        4ZZ        -0.00786   0.01276   0.00000  -0.05077   0.00000
  13        4XY         0.00000   0.00000   0.00000   0.00000   0.00000
  14        4XZ         0.00000   0.00000   0.00000   0.00000  -0.02620
  15        4YZ         0.00000   0.00000  -0.03287   0.00000   0.00000
  16 2   H  1S          0.00037   0.13161   0.22041  -0.13823   0.00000
  17        2S         -0.00116   0.01692   0.20437  -0.13991   0.00000
  18 3   H  1S          0.00037   0.13161  -0.22041  -0.13823   0.00000
  19        2S         -0.00116   0.01692  -0.20437  -0.13991   0.00000
                           6         7         8         9        10
                        (A1)--O   (B2)--V   (B2)--V   (A1)--V   (B1)--V
     Eigenvalues --     0.27049   0.40777   1.08813   1.16378   1.19494
   1 1   O  1S         -0.10255   0.00000   0.00000  -0.02172   0.00000
   2        2S          0.08684   0.00000   0.00000  -0.53710   0.00000
   3        2PX         0.00000   0.00000   0.00000   0.00000  -0.97121
   4        2PY         0.00000  -0.39249  -0.13761   0.00000   0.00000
   5        2PZ        -0.26087   0.00000   0.00000  -0.89463   0.00000
   6        3S          1.34002   0.00000   0.00000   1.02279   0.00000
   7        3PX         0.00000   0.00000   0.00000   0.00000   1.02927
   8        3PY         0.00000  -0.79550  -0.52770   0.00000   0.00000
   9        3PZ        -0.50682   0.00000   0.00000   0.81860   0.00000
  10        4XX        -0.07104   0.00000   0.00000  -0.16482   0.00000
  11        4YY        -0.05334   0.00000   0.00000  -0.24847   0.00000
  12        4ZZ        -0.04034   0.00000   0.00000  -0.21382   0.00000
  13        4XY         0.00000   0.00000   0.00000   0.00000   0.00000
  14        4XZ         0.00000   0.00000   0.00000   0.00000  -0.00622
  15        4YZ         0.00000   0.02374  -0.19480   0.00000   0.00000
  16 2   H  1S         -0.07154   0.05233   0.84965  -0.17390   0.00000
  17        2S         -1.00256   1.33130  -0.55024   0.08522   0.00000
  18 3   H  1S         -0.07154  -0.05233  -0.84965  -0.17390   0.00000
  19        2S         -1.00256  -1.33130   0.55024   0.08522   0.00000
                          11        12        13        14        15
                        (A1)--V   (B2)--V   (A1)--V   (A1)--V   (A2)--V
     Eigenvalues --     1.19585   1.36515   1.50730   2.05349   2.07238
   1 1   O  1S          0.03050   0.00000  -0.08416   0.00664   0.00000
   2        2S         -0.77323   0.00000  -1.40302   0.07016   0.00000
   3        2PX         0.00000   0.00000   0.00000   0.00000   0.00000
   4        2PY         0.00000  -1.01116   0.00000   0.00000   0.00000
   5        2PZ         0.13607   0.00000   0.41749  -0.00091   0.00000
   6        3S          1.27666   0.00000   3.50321  -0.20416   0.00000
   7        3PX         0.00000   0.00000   0.00000   0.00000   0.00000
   8        3PY         0.00000   1.58451   0.00000   0.00000   0.00000
   9        3PZ         0.24354   0.00000  -1.14231   0.11050   0.00000
  10        4XX        -0.34190   0.00000  -0.22677  -0.33890   0.00000
  11        4YY        -0.04478   0.00000  -0.64698  -0.61035   0.00000
  12        4ZZ        -0.20869   0.00000  -0.40548   1.00253   0.00000
  13        4XY         0.00000   0.00000   0.00000   0.00000   1.00000
  14        4XZ         0.00000   0.00000   0.00000   0.00000   0.00000
  15        4YZ         0.00000   0.00401   0.00000   0.00000   0.00000
  16 2   H  1S          0.81567   0.05220  -0.39524   0.07574   0.00000
  17        2S         -0.67095  -0.90829  -0.72301   0.02986   0.00000
  18 3   H  1S          0.81567  -0.05220  -0.39524   0.07574   0.00000
  19        2S         -0.67095   0.90829  -0.72301   0.02986   0.00000
                          16        17        18        19
                        (B1)--V   (A1)--V   (B2)--V   (A1)--V
     Eigenvalues --     2.10164   2.60487   2.89984   3.86262
   1 1   O  1S          0.00000  -0.05377   0.00000  -0.46718
   2        2S          0.00000  -0.51150   0.00000   0.30232
   3        2PX         0.01038   0.00000   0.00000   0.00000
   4        2PY         0.00000   0.00000   0.03058   0.00000
   5        2PZ         0.00000   0.06189   0.00000   0.11811
   6        3S          0.00000   1.55072   0.00000   3.65073
   7        3PX         0.02018   0.00000   0.00000   0.00000
   8        3PY         0.00000   0.00000  -0.83887   0.00000
   9        3PZ         0.00000  -0.74238   0.00000  -0.32817
  10        4XX         0.00000  -1.13760   0.00000  -1.57106
  11        4YY         0.00000   0.72627   0.00000  -1.52414
  12        4ZZ         0.00000   0.07088   0.00000  -1.54505
  13        4XY         0.00000   0.00000   0.00000   0.00000
  14        4XZ         0.99964   0.00000   0.00000   0.00000
  15        4YZ         0.00000   0.00000   1.27257   0.00000
  16 2   H  1S          0.00000  -0.81620   0.92237   0.11803
  17        2S          0.00000  -0.14073  -0.04806  -0.54522
  18 3   H  1S          0.00000  -0.81620  -0.92237   0.11803
  19        2S          0.00000  -0.14073   0.04806  -0.54522
     Beta Molecular Orbital Coefficients:
                           1         2         3         4         5
                        (A1)--O   (A1)--O   (B2)--O   (A1)--O   (B1)--O
     Eigenvalues --   -18.77525  -0.64109  -0.17075  -0.04417   0.04046
   1 1   O  1S          0.99281  -0.21166   0.00000  -0.07879   0.00000
   2        2S          0.02620   0.46429   0.00000   0.13974   0.00000
   3        2PX         0.00000   0.00000   0.00000   0.00000   0.62158
   4        2PY         0.00000   0.00000   0.51244   0.00000   0.00000
   5        2PZ        -0.00043  -0.09285   0.00000   0.54153   0.00000
   6        3S          0.01063   0.45692   0.00000   0.42527   0.00000
   7        3PX         0.00000   0.00000   0.00000   0.00000   0.53105
   8        3PY         0.00000   0.00000   0.28551   0.00000   0.00000
   9        3PZ        -0.00032  -0.03852   0.00000   0.38872   0.00000
  10        4XX        -0.00786  -0.00897   0.00000  -0.01041   0.00000
  11        4YY        -0.00788   0.02042   0.00000  -0.01353   0.00000
  12        4ZZ        -0.00791   0.00940   0.00000  -0.04777   0.00000
  13        4XY         0.00000   0.00000   0.00000   0.00000   0.00000
  14        4XZ         0.00000   0.00000   0.00000   0.00000  -0.02308
  15        4YZ         0.00000   0.00000  -0.03408   0.00000   0.00000
  16 2   H  1S          0.00038   0.13104   0.21879  -0.14476   0.00000
  17        2S         -0.00118   0.01382   0.15949  -0.12750   0.00000
  18 3   H  1S          0.00038   0.13104  -0.21879  -0.14476   0.00000
  19        2S         -0.00118   0.01382  -0.15949  -0.12750   0.00000
                           6         7         8         9        10
                        (A1)--V   (B2)--V   (B2)--V   (A1)--V   (B1)--V
     Eigenvalues --     0.37210   0.45384   1.09932   1.17773   1.20394
   1 1   O  1S         -0.10324   0.00000   0.00000  -0.01884   0.00000
   2        2S          0.09643   0.00000   0.00000  -0.69131   0.00000
   3        2PX         0.00000   0.00000   0.00000   0.00000  -0.97452
   4        2PY         0.00000  -0.38553  -0.12541   0.00000   0.00000
   5        2PZ        -0.24418   0.00000   0.00000  -0.85348   0.00000
   6        3S          1.32717   0.00000   0.00000   1.31686   0.00000
   7        3PX         0.00000   0.00000   0.00000   0.00000   1.02636
   8        3PY         0.00000  -0.77942  -0.52472   0.00000   0.00000
   9        3PZ        -0.51901   0.00000   0.00000   0.82012   0.00000
  10        4XX        -0.06410   0.00000   0.00000  -0.22358   0.00000
  11        4YY        -0.04690   0.00000   0.00000  -0.25908   0.00000
  12        4ZZ        -0.03890   0.00000   0.00000  -0.25808   0.00000
  13        4XY         0.00000   0.00000   0.00000   0.00000   0.00000
  14        4XZ         0.00000   0.00000   0.00000   0.00000  -0.01224
  15        4YZ         0.00000   0.01459  -0.19897   0.00000   0.00000
  16 2   H  1S         -0.06247   0.06838   0.84542  -0.02797   0.00000
  17        2S         -1.00680   1.32257  -0.56328  -0.06730   0.00000
  18 3   H  1S         -0.06247  -0.06838  -0.84542  -0.02797   0.00000
  19        2S         -1.00680  -1.32257   0.56328  -0.06730   0.00000
                          11        12        13        14        15
                        (A1)--V   (B2)--V   (A1)--V   (A1)--V   (A2)--V
     Eigenvalues --     1.22035   1.37781   1.52069   2.06165   2.07305
   1 1   O  1S          0.03887   0.00000  -0.08211   0.00626   0.00000
   2        2S         -0.60808   0.00000  -1.41656   0.08487   0.00000
   3        2PX         0.00000   0.00000   0.00000   0.00000   0.00000
   4        2PY         0.00000  -1.01027   0.00000   0.00000   0.00000
   5        2PZ         0.28775   0.00000   0.44993  -0.01257   0.00000
   6        3S          0.91701   0.00000   3.52014  -0.23049   0.00000
   7        3PX         0.00000   0.00000   0.00000   0.00000   0.00000
   8        3PY         0.00000   1.58890   0.00000   0.00000   0.00000
   9        3PZ         0.14276   0.00000  -1.14598   0.12382   0.00000
  10        4XX        -0.30070   0.00000  -0.23745  -0.33376   0.00000
  11        4YY         0.02736   0.00000  -0.65167  -0.60923   0.00000
  12        4ZZ        -0.14467   0.00000  -0.40207   1.00457   0.00000
  13        4XY         0.00000   0.00000   0.00000   0.00000   1.00000
  14        4XZ         0.00000   0.00000   0.00000   0.00000   0.00000
  15        4YZ         0.00000  -0.00162   0.00000   0.00000   0.00000
  16 2   H  1S          0.84553   0.05411  -0.35918   0.07790   0.00000
  17        2S         -0.63855  -0.92197  -0.74927   0.03618   0.00000
  18 3   H  1S          0.84553  -0.05411  -0.35918   0.07790   0.00000
  19        2S         -0.63855   0.92197  -0.74927   0.03618   0.00000
                          16        17        18        19
                        (B1)--V   (A1)--V   (B2)--V   (A1)--V
     Eigenvalues --     2.10916   2.61181   2.91274   3.87308
   1 1   O  1S          0.00000  -0.05469   0.00000  -0.46746
   2        2S          0.00000  -0.51405   0.00000   0.30465
   3        2PX         0.00242   0.00000   0.00000   0.00000
   4        2PY         0.00000   0.00000   0.02543   0.00000
   5        2PZ         0.00000   0.06175   0.00000   0.11416
   6        3S          0.00000   1.56552   0.00000   3.64822
   7        3PX         0.02483   0.00000   0.00000   0.00000
   8        3PY         0.00000   0.00000  -0.83836   0.00000
   9        3PZ         0.00000  -0.74554   0.00000  -0.32510
  10        4XX         0.00000  -1.14068   0.00000  -1.56984
  11        4YY         0.00000   0.72028   0.00000  -1.52425
  12        4ZZ         0.00000   0.07122   0.00000  -1.54531
  13        4XY         0.00000   0.00000   0.00000   0.00000
  14        4XZ         0.99966   0.00000   0.00000   0.00000
  15        4YZ         0.00000   0.00000   1.27203   0.00000
  16 2   H  1S          0.00000  -0.81976   0.92547   0.11987
  17        2S          0.00000  -0.14396  -0.04730  -0.54526
  18 3   H  1S          0.00000  -0.81976  -0.92547   0.11987
  19        2S          0.00000  -0.14396   0.04730  -0.54526
     Alpha Density Matrix:
                           1         2         3         4         5
   1 1   O  1S          1.04782
   2        2S         -0.09418   0.25086
   3        2PX         0.00000   0.00000   0.39269
   4        2PY         0.00000   0.00000   0.00000   0.25188
   5        2PZ         0.00533  -0.00488   0.00000   0.00000   0.38121
   6        3S         -0.25894   0.38784   0.00000   0.00000  -0.14498
   7        3PX         0.00000   0.00000   0.32937   0.00000   0.00000
   8        3PY         0.00000   0.00000   0.00000   0.12907   0.00000
   9        3PZ         0.02875  -0.01229   0.00000   0.00000   0.34253
  10        4XX         0.00256  -0.01263   0.00000   0.00000   0.01226
  11        4YY        -0.00488   0.00142   0.00000   0.00000   0.00457
  12        4ZZ        -0.00210  -0.00454   0.00000   0.00000  -0.01875
  13        4XY         0.00000   0.00000   0.00000   0.00000   0.00000
  14        4XZ         0.00000   0.00000  -0.01642   0.00000   0.00000
  15        4YZ         0.00000   0.00000   0.00000  -0.01650   0.00000
  16 2   H  1S         -0.00850   0.03741   0.00000   0.11062  -0.07257
  17        2S          0.10983  -0.09802   0.00000   0.10257   0.18301
  18 3   H  1S         -0.00850   0.03741   0.00000  -0.11062  -0.07257
  19        2S          0.10983  -0.09802   0.00000  -0.10257   0.18301
                           6         7         8         9        10
   6        3S          2.20830
   7        3PX         0.00000   0.27625
   8        3PY         0.00000   0.00000   0.06614
   9        3PZ        -0.52049   0.00000   0.00000   0.39974
  10        4XX        -0.10571   0.00000   0.00000   0.03131   0.00538
  11        4YY        -0.07037   0.00000   0.00000   0.02131   0.00387
  12        4ZZ        -0.07237   0.00000   0.00000   0.00085   0.00349
  13        4XY         0.00000   0.00000   0.00000   0.00000   0.00000
  14        4XZ         0.00000  -0.01377   0.00000   0.00000   0.00000
  15        4YZ         0.00000   0.00000  -0.00845   0.00000   0.00000
  16 2   H  1S         -0.10305   0.00000   0.05668  -0.02102   0.00572
  17        2S         -1.40171   0.00000   0.05256   0.45485   0.07296
  18 3   H  1S         -0.10305   0.00000  -0.05668  -0.02102   0.00572
  19        2S         -1.40171   0.00000  -0.05256   0.45485   0.07296
                          11        12        13        14        15
  11        4YY         0.00338
  12        4ZZ         0.00311   0.00443
  13        4XY         0.00000   0.00000   0.00000
  14        4XZ         0.00000   0.00000   0.00000   0.00069
  15        4YZ         0.00000   0.00000   0.00000   0.00000   0.00108
  16 2   H  1S          0.00791   0.01158   0.00000   0.00000  -0.00724
  17        2S          0.05564   0.04777   0.00000   0.00000  -0.00672
  18 3   H  1S          0.00791   0.01158   0.00000   0.00000   0.00724
  19        2S          0.05564   0.04777   0.00000   0.00000   0.00672
                          16        17        18        19
  16 2   H  1S          0.09013
  17        2S          0.13834   1.06675
  18 3   H  1S         -0.00703   0.04825   0.09013
  19        2S          0.04825   0.98321   0.13834   1.06675
     Beta Density Matrix:
                           1         2         3         4         5
   1 1   O  1S          1.03668
   2        2S         -0.08327   0.23578
   3        2PX         0.00000   0.00000   0.38636
   4        2PY         0.00000   0.00000   0.00000   0.26259
   5        2PZ        -0.02345   0.03255   0.00000   0.00000   0.30188
   6        3S         -0.11967   0.27185   0.00000   0.00000   0.18787
   7        3PX         0.00000   0.00000   0.33009   0.00000   0.00000
   8        3PY         0.00000   0.00000   0.00000   0.14630   0.00000
   9        3PZ        -0.02279   0.03643   0.00000   0.00000   0.21408
  10        4XX        -0.00508  -0.00582   0.00000   0.00000  -0.00480
  11        4YY        -0.01108   0.00738   0.00000   0.00000  -0.00922
  12        4ZZ        -0.00608  -0.00252   0.00000   0.00000  -0.02674
  13        4XY         0.00000   0.00000   0.00000   0.00000   0.00000
  14        4XZ         0.00000   0.00000  -0.01435   0.00000   0.00000
  15        4YZ         0.00000   0.00000   0.00000  -0.01746   0.00000
  16 2   H  1S         -0.01596   0.04062   0.00000   0.11211  -0.09056
  17        2S          0.00595  -0.01143   0.00000   0.08173  -0.07033
  18 3   H  1S         -0.01596   0.04062   0.00000  -0.11211  -0.09056
  19        2S          0.00595  -0.01143   0.00000  -0.08173  -0.07033
                           6         7         8         9        10
   6        3S          0.38974
   7        3PX         0.00000   0.28202
   8        3PY         0.00000   0.00000   0.08151
   9        3PZ         0.14771   0.00000   0.00000   0.15259
  10        4XX        -0.00861   0.00000   0.00000  -0.00370   0.00025
  11        4YY         0.00349   0.00000   0.00000  -0.00604   0.00002
  12        4ZZ        -0.01611   0.00000   0.00000  -0.01893   0.00048
  13        4XY         0.00000   0.00000   0.00000   0.00000   0.00000
  14        4XZ         0.00000  -0.01226   0.00000   0.00000   0.00000
  15        4YZ         0.00000   0.00000  -0.00973   0.00000   0.00000
  16 2   H  1S         -0.00168   0.00000   0.06247  -0.06132   0.00033
  17        2S         -0.04792   0.00000   0.04554  -0.05009   0.00121
  18 3   H  1S         -0.00168   0.00000  -0.06247  -0.06132   0.00033
  19        2S         -0.04792   0.00000  -0.04554  -0.05009   0.00121
                          11        12        13        14        15
  11        4YY         0.00066
  12        4ZZ         0.00090   0.00243
  13        4XY         0.00000   0.00000   0.00000
  14        4XZ         0.00000   0.00000   0.00000   0.00053
  15        4YZ         0.00000   0.00000   0.00000   0.00000   0.00116
  16 2   H  1S          0.00463   0.00814   0.00000   0.00000  -0.00746
  17        2S          0.00202   0.00623   0.00000   0.00000  -0.00544
  18 3   H  1S          0.00463   0.00814   0.00000   0.00000   0.00746
  19        2S          0.00202   0.00623   0.00000   0.00000   0.00544
                          16        17        18        19
  16 2   H  1S          0.08599
  17        2S          0.05516   0.04189
  18 3   H  1S         -0.00974  -0.01463   0.08599
  19        2S         -0.01463  -0.00899   0.05516   0.04189
    Full Mulliken population analysis:
                           1         2         3         4         5
   1 1   O  1S          2.08450
   2        2S         -0.04147   0.48664
   3        2PX         0.00000   0.00000   0.77905
   4        2PY         0.00000   0.00000   0.00000   0.51447
   5        2PZ         0.00000   0.00000   0.00000   0.00000   0.68309
   6        3S         -0.06333   0.50376   0.00000   0.00000   0.00000
   7        3PX         0.00000   0.00000   0.33073   0.00000   0.00000
   8        3PY         0.00000   0.00000   0.00000   0.13811   0.00000
   9        3PZ         0.00000   0.00000   0.00000   0.00000   0.27915
  10        4XX        -0.00008  -0.01009   0.00000   0.00000   0.00000
  11        4YY        -0.00054   0.00482   0.00000   0.00000   0.00000
  12        4ZZ        -0.00027  -0.00386   0.00000   0.00000   0.00000
  13        4XY         0.00000   0.00000   0.00000   0.00000   0.00000
  14        4XZ         0.00000   0.00000   0.00000   0.00000   0.00000
  15        4YZ         0.00000   0.00000   0.00000   0.00000   0.00000
  16 2   H  1S         -0.00082   0.01882   0.00000   0.04920   0.02835
  17        2S          0.00789  -0.04120   0.00000   0.02142  -0.01031
  18 3   H  1S         -0.00082   0.01882   0.00000   0.04920   0.02835
  19        2S          0.00789  -0.04120   0.00000   0.02142  -0.01031
                           6         7         8         9        10
   6        3S          2.59804
   7        3PX         0.00000   0.55827
   8        3PY         0.00000   0.00000   0.14765
   9        3PZ         0.00000   0.00000   0.00000   0.55232
  10        4XX        -0.07991   0.00000   0.00000   0.00000   0.00563
  11        4YY        -0.04675   0.00000   0.00000   0.00000   0.00130
  12        4ZZ        -0.06185   0.00000   0.00000   0.00000   0.00132
  13        4XY         0.00000   0.00000   0.00000   0.00000   0.00000
  14        4XZ         0.00000   0.00000   0.00000   0.00000   0.00000
  15        4YZ         0.00000   0.00000   0.00000   0.00000   0.00000
  16 2   H  1S         -0.04411   0.00000   0.05447   0.02962   0.00098
  17        2S         -0.98384   0.00000   0.03722  -0.12085   0.02937
  18 3   H  1S         -0.04411   0.00000   0.05447   0.02962   0.00098
  19        2S         -0.98384   0.00000   0.03722  -0.12085   0.02937
                          11        12        13        14        15
  11        4YY         0.00404
  12        4ZZ         0.00134   0.00686
  13        4XY         0.00000   0.00000   0.00000
  14        4XZ         0.00000   0.00000   0.00000   0.00122
  15        4YZ         0.00000   0.00000   0.00000   0.00000   0.00224
  16 2   H  1S          0.00503   0.00612   0.00000   0.00000   0.00477
  17        2S          0.02539   0.02286   0.00000   0.00000   0.00073
  18 3   H  1S          0.00503   0.00612   0.00000   0.00000   0.00477
  19        2S          0.02539   0.02286   0.00000   0.00000   0.00073
                          16        17        18        19
  16 2   H  1S          0.17612
  17        2S          0.12738   1.10863
  18 3   H  1S         -0.00084   0.00746   0.17612
  19        2S          0.00746   0.49973   0.12738   1.10863
     Gross orbital populations:
                         Total     Alpha     Beta      Spin
   1 1   O  1S          1.99295   0.99675   0.99620   0.00055
   2        2S          0.89505   0.46067   0.43438   0.02629
   3        2PX         1.10978   0.55788   0.55190   0.00597
   4        2PY         0.79381   0.38932   0.40449  -0.01517
   5        2PZ         0.99834   0.54475   0.45359   0.09116
   6        3S          0.79407   0.29805   0.49602  -0.19797
   7        3PX         0.88900   0.44143   0.44756  -0.00613
   8        3PY         0.46915   0.22258   0.24656  -0.02398
   9        3PZ         0.64902   0.31503   0.33398  -0.01895
  10        4XX        -0.02113  -0.01324  -0.00789  -0.00535
  11        4YY         0.02504   0.01247   0.01257  -0.00009
  12        4ZZ         0.00150   0.00112   0.00038   0.00074
  13        4XY         0.00000   0.00000   0.00000   0.00000
  14        4XZ         0.00122   0.00069   0.00053   0.00015
  15        4YZ         0.01326   0.00660   0.00666  -0.00006
  16 2   H  1S          0.46256   0.23745   0.22511   0.01235
  17        2S          0.73191   0.64549   0.08642   0.55907
  18 3   H  1S          0.46256   0.23745   0.22511   0.01235
  19        2S          0.73191   0.64549   0.08642   0.55907
          Condensed to atoms (all electrons):
               1          2          3
     1  O   10.328767  -0.858858  -0.858858
     2  H   -0.858858   1.539513   0.513819
     3  H   -0.858858   0.513819   1.539513
          Atomic-Atomic Spin Densities.
               1          2          3
     1  O    2.065360  -1.104097  -1.104097
     2  H   -1.104097   1.138502   0.537011
     3  H   -1.104097   0.537011   1.138502
 Mulliken charges and spin densities:
               1          2
     1  O   -0.611051  -0.142833
     2  H   -0.194474   0.571417
     3  H   -0.194474   0.571417
 Sum of Mulliken charges =  -1.00000   1.00000
 Mulliken charges and spin densities with hydrogens summed into heavy atoms:
               1          2
     1  O   -1.000000   1.000000
 Electronic spatial extent (au):  <R**2>=             30.3208
 Charge=             -1.0000 electrons
 Dipole moment (field-independent basis, Debye):
    X=              0.0000    Y=              0.0000    Z=              0.8066  Tot=              0.8066
 Quadrupole moment (field-independent basis, Debye-Ang):
   XX=             -9.9007   YY=            -11.3944   ZZ=            -11.1621
   XY=              0.0000   XZ=              0.0000   YZ=              0.0000
 Traceless Quadrupole moment (field-independent basis, Debye-Ang):
   XX=              0.9184   YY=             -0.5753   ZZ=             -0.3430
   XY=              0.0000   XZ=              0.0000   YZ=              0.0000
 Octapole moment (field-independent basis, Debye-Ang**2):
  XXX=              0.0000  YYY=              0.0000  ZZZ=              4.9174  XYY=              0.0000
  XXY=              0.0000  XXZ=              1.2408  XZZ=              0.0000  YZZ=              0.0000
  YYZ=              2.7942  XYZ=              0.0000
 Hexadecapole moment (field-independent basis, Debye-Ang**3):
 XXXX=             -9.5220 YYYY=            -26.1173 ZZZZ=            -18.4124 XXXY=              0.0000
 XXXZ=              0.0000 YYYX=              0.0000 YYYZ=              0.0000 ZZZX=              0.0000
 ZZZY=              0.0000 XXYY=             -5.6023 XXZZ=             -4.5667 YYZZ=             -7.7151
 XXYZ=              0.0000 YYXZ=              0.0000 ZZXY=              0.0000
 N-N= 9.087844456835D+00 E-N=-2.024910102682D+02  KE= 7.638520073478D+01
 Symmetry A1   KE= 6.854518553164D+01
 Symmetry A2   KE= 5.271528594873D-35
 Symmetry B1   KE= 4.414453894536D+00
 Symmetry B2   KE= 3.425561308603D+00
 Orbital energies and kinetic energies (alpha):
                                 1                 2
   1         (A1)--O         -18.784042         29.026828
   2         (A1)--O          -0.662757          2.589316
   3         (B2)--O          -0.182822          1.684580
   4         (A1)--O          -0.059915          2.137019
   5         (B1)--O           0.031937          2.218573
   6         (A1)--O           0.270487          1.109493
   7         (B2)--V           0.407768          1.194376
   8         (B2)--V           1.088128          2.075776
   9         (A1)--V           1.163785          3.436417
  10         (B1)--V           1.194943          3.631684
  11         (A1)--V           1.195846          2.645367
  12         (B2)--V           1.365147          3.902102
  13         (A1)--V           1.507300          2.389074
  14         (A1)--V           2.053492          2.795978
  15         (A2)--V           2.072377          2.800000
  16         (B1)--V           2.101642          2.798932
  17         (A1)--V           2.604871          3.466762
  18         (B2)--V           2.899843          3.891091
  19         (A1)--V           3.862618          9.874391
 Orbital energies and kinetic energies (beta):
                                 1                 2
   1         (A1)--O         -18.775253         29.028985
   2         (A1)--O          -0.641086          2.553540
   3         (B2)--O          -0.170746          1.740981
   4         (A1)--O          -0.044169          2.100005
   5         (B1)--O           0.040461          2.195881
   6         (A1)--V           0.372102          1.092255
   7         (B2)--V           0.453839          1.163263
   8         (B2)--V           1.099317          2.053855
   9         (A1)--V           1.177727          3.264047
  10         (B1)--V           1.203943          3.654713
  11         (A1)--V           1.220347          2.814597
  12         (B2)--V           1.377809          3.896546
  13         (A1)--V           1.520688          2.467276
  14         (A1)--V           2.061654          2.795692
  15         (A2)--V           2.073055          2.800000
  16         (B1)--V           2.109161          2.798596
  17         (A1)--V           2.611808          3.468067
  18         (B2)--V           2.912736          3.893281
  19         (A1)--V           3.873083          9.886181
 Total kinetic energy from orbitals= 7.638520073478D+01
                          Isotropic Fermi Contact Couplings
        Atom                 a.u.       MegaHertz       Gauss      10(-4) cm-1
     1  O(17)              1.25737    -762.21296    -271.97653    -254.24688
     2  H(1)               0.00631      28.22663      10.07196       9.41539
     3  H(1)               0.00631      28.22663      10.07196       9.41539
 --------------------------------------------------------
       Center         ----  Spin Dipole Couplings  ----
                      3XX-RR        3YY-RR        3ZZ-RR
 --------------------------------------------------------
     1   Atom       -0.220537     -0.404019      0.624557
     2   Atom       -0.053912      0.076227     -0.022315
     3   Atom       -0.053912      0.076227     -0.022315
 --------------------------------------------------------
                        XY            XZ            YZ
 --------------------------------------------------------
     1   Atom        0.000000      0.000000      0.000000
     2   Atom        0.000000      0.000000     -0.049815
     3   Atom        0.000000      0.000000      0.049815
 --------------------------------------------------------


 ---------------------------------------------------------------------------------
              Anisotropic Spin Dipole Couplings in Principal Axis System
 ---------------------------------------------------------------------------------

       Atom             a.u.   MegaHertz   Gauss  10(-4) cm-1        Axes

              Baa    -0.4040    29.235    10.432     9.752  0.0000  1.0000  0.0000
     1 O(17)  Bbb    -0.2205    15.958     5.694     5.323  1.0000  0.0000  0.0000
              Bcc     0.6246   -45.192   -16.126   -15.075  0.0000  0.0000  1.0000
 
              Baa    -0.0539   -28.765   -10.264    -9.595  1.0000  0.0000  0.0000
     2 H(1)   Bbb    -0.0431   -23.001    -8.207    -7.672  0.0000  0.3852  0.9228
              Bcc     0.0970    51.766    18.471    17.267  0.0000  0.9228 -0.3852
 
              Baa    -0.0539   -28.765   -10.264    -9.595  1.0000  0.0000  0.0000
     3 H(1)   Bbb    -0.0431   -23.001    -8.207    -7.672  0.0000 -0.3852  0.9228
              Bcc     0.0970    51.766    18.471    17.267  0.0000  0.9228  0.3852
 

 ---------------------------------------------------------------------------------

 No NMR shielding tensors so no spin-rotation constants.
 Leave Link  601 at Mon May 27 17:20:15 2019, MaxMem=   131072000 cpu:         0.2
 (Enter /applis/g09/l9999.exe)
 1\1\GINC-MOLTECH-CALC0\SP\UB3LYP\6-31G(d)\H2O1(1-,2)\TCAUCHY\27-May-20
 19\0\\#P B3LYP SP 6-31G* guess=read geom=check Direct gfprint pop=(ful
 l)\\OPT H20 B3LYP 6-31G*\\-1,2\O,0,0.,0.,-0.1006369329\H,0,0.,0.761282
 7676,-0.6996815335\H,0,0.,-0.7612827676,-0.6996815335\\Version=EM64L-G
 09RevD.01\State=2-A1\HF=-76.2441025\S2=0.751392\S2-1=0.\S2A=0.750001\R
 MSD=7.707e-10\Dipole=0.,0.,0.3173546\Quadrupole=0.6827897,-0.427747,-0
 .2550427,0.,0.,0.\PG=C02V [C2(O1),SGV(H2)]\\@


 IT MATTERS NOT HOW DEEP YOU PLOW,
 BUT HOW LONG YOU STAY IN THE FURROW.
 Job cpu time:       0 days  0 hours  0 minutes  1.0 seconds.
 File lengths (MBytes):  RWF=      5 Int=      0 D2E=      0 Chk=      1 Scr=      1
 Normal termination of Gaussian 09 at Mon May 27 17:20:15 2019.
