 Entering Gaussian System, Link 0=g09
 Input=H2O_OPT.inp
 Output=H2O_OPT.log
 Initial command:
 /applis/g09/l1.exe "/tmp/Gau-12008.inp" -scrdir="/tmp/"
 Entering Link 1 = /applis/g09/l1.exe PID=     12010.
  
 Copyright (c) 1988,1990,1992,1993,1995,1998,2003,2009,2013,
            Gaussian, Inc.  All Rights Reserved.
  
 This is part of the Gaussian(R) 09 program.  It is based on
 the Gaussian(R) 03 system (copyright 2003, Gaussian, Inc.),
 the Gaussian(R) 98 system (copyright 1998, Gaussian, Inc.),
 the Gaussian(R) 94 system (copyright 1995, Gaussian, Inc.),
 the Gaussian 92(TM) system (copyright 1992, Gaussian, Inc.),
 the Gaussian 90(TM) system (copyright 1990, Gaussian, Inc.),
 the Gaussian 88(TM) system (copyright 1988, Gaussian, Inc.),
 the Gaussian 86(TM) system (copyright 1986, Carnegie Mellon
 University), and the Gaussian 82(TM) system (copyright 1983,
 Carnegie Mellon University). Gaussian is a federally registered
 trademark of Gaussian, Inc.
  
 This software contains proprietary and confidential information,
 including trade secrets, belonging to Gaussian, Inc.
  
 This software is provided under written license and may be
 used, copied, transmitted, or stored only in accord with that
 written license.
  
 The following legend is applicable only to US Government
 contracts under FAR:
  
                    RESTRICTED RIGHTS LEGEND
  
 Use, reproduction and disclosure by the US Government is
 subject to restrictions as set forth in subparagraphs (a)
 and (c) of the Commercial Computer Software - Restricted
 Rights clause in FAR 52.227-19.
  
 Gaussian, Inc.
 340 Quinnipiac St., Bldg. 40, Wallingford CT 06492
  
  
 ---------------------------------------------------------------
 Warning -- This program may not be used in any manner that
 competes with the business of Gaussian, Inc. or will provide
 assistance to any competitor of Gaussian, Inc.  The licensee
 of this program is prohibited from giving any competitor of
 Gaussian, Inc. access to this program.  By using this program,
 the user acknowledges that Gaussian, Inc. is engaged in the
 business of creating and licensing software in the field of
 computational chemistry and represents and warrants to the
 licensee that it is not a competitor of Gaussian, Inc. and that
 it will not use this program in any manner prohibited above.
 ---------------------------------------------------------------
  

 Cite this work as:
 Gaussian 09, Revision D.01,
 M. J. Frisch, G. W. Trucks, H. B. Schlegel, G. E. Scuseria, 
 M. A. Robb, J. R. Cheeseman, G. Scalmani, V. Barone, B. Mennucci, 
 G. A. Petersson, H. Nakatsuji, M. Caricato, X. Li, H. P. Hratchian, 
 A. F. Izmaylov, J. Bloino, G. Zheng, J. L. Sonnenberg, M. Hada, 
 M. Ehara, K. Toyota, R. Fukuda, J. Hasegawa, M. Ishida, T. Nakajima, 
 Y. Honda, O. Kitao, H. Nakai, T. Vreven, J. A. Montgomery, Jr., 
 J. E. Peralta, F. Ogliaro, M. Bearpark, J. J. Heyd, E. Brothers, 
 K. N. Kudin, V. N. Staroverov, T. Keith, R. Kobayashi, J. Normand, 
 K. Raghavachari, A. Rendell, J. C. Burant, S. S. Iyengar, J. Tomasi, 
 M. Cossi, N. Rega, J. M. Millam, M. Klene, J. E. Knox, J. B. Cross, 
 V. Bakken, C. Adamo, J. Jaramillo, R. Gomperts, R. E. Stratmann, 
 O. Yazyev, A. J. Austin, R. Cammi, C. Pomelli, J. W. Ochterski, 
 R. L. Martin, K. Morokuma, V. G. Zakrzewski, G. A. Voth, 
 P. Salvador, J. J. Dannenberg, S. Dapprich, A. D. Daniels, 
 O. Farkas, J. B. Foresman, J. V. Ortiz, J. Cioslowski, 
 and D. J. Fox, Gaussian, Inc., Wallingford CT, 2013.
 
 ******************************************
 Gaussian 09:  EM64L-G09RevD.01 24-Apr-2013
                27-May-2019 
 ******************************************
 %Chk=OPT
 %nprocshared=1
 Will use up to    1 processors via shared memory.
 %mem=1000MB
 ---------------------------------------------
 #P OPT B3LYP 6-31G* Direct gfprint pop=(full)
 ---------------------------------------------
 1/14=-1,18=20,19=15,26=3,38=1/1,3;
 2/9=110,12=2,17=6,18=5,40=1/2;
 3/5=1,6=6,7=1,11=2,16=1,24=100,25=1,30=1,71=1,74=-5/1,2,3;
 4//1;
 5/5=2,38=5/2;
 6/7=3,28=1/1;
 7//1,2,3,16;
 1/14=-1,18=20,19=15,26=3/3(2);
 2/9=110/2;
 99//99;
 2/9=110/2;
 3/5=1,6=6,7=1,11=2,16=1,25=1,30=1,71=1,74=-5/1,2,3;
 4/5=5,16=3,69=1/1;
 5/5=2,38=5/2;
 7//1,2,3,16;
 1/14=-1,18=20,19=15,26=3/3(-5);
 2/9=110/2;
 6/7=3,19=2,28=1/1;
 99/9=1/99;
 Leave Link    1 at Mon May 27 17:07:01 2019, MaxMem=   131072000 cpu:         0.0
 (Enter /applis/g09/l101.exe)
 --------------------
 OPT H20 B3LYP 6-31G*
 --------------------
 Symbolic Z-matrix:
 Charge =  0 Multiplicity = 1
 O                     0.        0.       -0.111 
 H                     0.        0.75941  -0.6945 
 H                     0.       -0.75941  -0.6945 
 
 NAtoms=      3 NQM=        3 NQMF=       0 NMMI=      0 NMMIF=      0
                NMic=       0 NMicF=      0.
                    Isotopes and Nuclear Properties:
 (Nuclear quadrupole moments (NQMom) in fm**2, nuclear magnetic moments (NMagM)
  in nuclear magnetons)

  Atom         1           2           3
 IAtWgt=          16           1           1
 AtmWgt=  15.9949146   1.0078250   1.0078250
 NucSpn=           0           1           1
 AtZEff=   0.0000000   0.0000000   0.0000000
 NQMom=    0.0000000   0.0000000   0.0000000
 NMagM=    0.0000000   2.7928460   2.7928460
 AtZNuc=   8.0000000   1.0000000   1.0000000
 Leave Link  101 at Mon May 27 17:07:01 2019, MaxMem=   131072000 cpu:         0.1
 (Enter /applis/g09/l103.exe)

 GradGradGradGradGradGradGradGradGradGradGradGradGradGradGradGradGradGrad
 Berny optimization.
 Initialization pass.
                           ----------------------------
                           !    Initial Parameters    !
                           ! (Angstroms and Degrees)  !
 --------------------------                            --------------------------
 ! Name  Definition              Value          Derivative Info.                !
 --------------------------------------------------------------------------------
 ! R1    R(1,2)                  0.9577         estimate D2E/DX2                !
 ! R2    R(1,3)                  0.9577         estimate D2E/DX2                !
 ! A1    A(2,1,3)              104.9259         estimate D2E/DX2                !
 --------------------------------------------------------------------------------
 Trust Radius=3.00D-01 FncErr=1.00D-07 GrdErr=1.00D-06
 Number of steps in this run=     20 maximum allowed number of steps=    100.
 GradGradGradGradGradGradGradGradGradGradGradGradGradGradGradGradGradGrad

 Leave Link  103 at Mon May 27 17:07:01 2019, MaxMem=   131072000 cpu:         0.0
 (Enter /applis/g09/l202.exe)
                          Input orientation:                          
 ---------------------------------------------------------------------
 Center     Atomic      Atomic             Coordinates (Angstroms)
 Number     Number       Type             X           Y           Z
 ---------------------------------------------------------------------
      1          8           0        0.000000    0.000000   -0.111004
      2          1           0        0.000000    0.759407   -0.694498
      3          1           0        0.000000   -0.759407   -0.694498
 ---------------------------------------------------------------------
                    Distance matrix (angstroms):
                    1          2          3
     1  O    0.000000
     2  H    0.957687   0.000000
     3  H    0.957687   1.518814   0.000000
 Stoichiometry    H2O
 Framework group  C2V[C2(O),SGV(H2)]
 Deg. of freedom     2
 Full point group                 C2V     NOp   4
 Largest Abelian subgroup         C2V     NOp   4
 Largest concise Abelian subgroup C2      NOp   2
                         Standard orientation:                         
 ---------------------------------------------------------------------
 Center     Atomic      Atomic             Coordinates (Angstroms)
 Number     Number       Type             X           Y           Z
 ---------------------------------------------------------------------
      1          8           0        0.000000    0.000000    0.116699
      2          1           0        0.000000    0.759407   -0.466795
      3          1           0        0.000000   -0.759407   -0.466795
 ---------------------------------------------------------------------
 Rotational constants (GHZ):    829.2293618    434.7632886    285.2219783
 Leave Link  202 at Mon May 27 17:07:01 2019, MaxMem=   131072000 cpu:         0.0
 (Enter /applis/g09/l301.exe)
 Standard basis: 6-31G(d) (6D, 7F)
 Ernie: Thresh=  0.10000D-02 Tol=  0.10000D-05 Strict=F.
 AO basis set (Overlap normalization):
 Atom O1       Shell     1 S   6     bf    1 -     1          0.000000000000          0.000000000000          0.220528772036
      0.5484671660D+04  0.1831074430D-02
      0.8252349460D+03  0.1395017220D-01
      0.1880469580D+03  0.6844507810D-01
      0.5296450000D+02  0.2327143360D+00
      0.1689757040D+02  0.4701928980D+00
      0.5799635340D+01  0.3585208530D+00
 Atom O1       Shell     2 SP   3    bf    2 -     5          0.000000000000          0.000000000000          0.220528772036
      0.1553961625D+02 -0.1107775495D+00  0.7087426823D-01
      0.3599933586D+01 -0.1480262627D+00  0.3397528391D+00
      0.1013761750D+01  0.1130767015D+01  0.7271585773D+00
 Atom O1       Shell     3 SP   1    bf    6 -     9          0.000000000000          0.000000000000          0.220528772036
      0.2700058226D+00  0.1000000000D+01  0.1000000000D+01
 Atom O1       Shell     4 D   1     bf   10 -    15          0.000000000000          0.000000000000          0.220528772036
      0.8000000000D+00  0.1000000000D+01
 Atom H2       Shell     5 S   3     bf   16 -    16          0.000000000000          1.435071253396         -0.882115088146
      0.1873113696D+02  0.3349460434D-01
      0.2825394365D+01  0.2347269535D+00
      0.6401216923D+00  0.8137573261D+00
 Atom H2       Shell     6 S   1     bf   17 -    17          0.000000000000          1.435071253396         -0.882115088146
      0.1612777588D+00  0.1000000000D+01
 Atom H3       Shell     7 S   3     bf   18 -    18          0.000000000000         -1.435071253396         -0.882115088146
      0.1873113696D+02  0.3349460434D-01
      0.2825394365D+01  0.2347269535D+00
      0.6401216923D+00  0.8137573261D+00
 Atom H3       Shell     8 S   1     bf   19 -    19          0.000000000000         -1.435071253396         -0.882115088146
      0.1612777588D+00  0.1000000000D+01
 There are    10 symmetry adapted cartesian basis functions of A1  symmetry.
 There are     1 symmetry adapted cartesian basis functions of A2  symmetry.
 There are     3 symmetry adapted cartesian basis functions of B1  symmetry.
 There are     5 symmetry adapted cartesian basis functions of B2  symmetry.
 There are    10 symmetry adapted basis functions of A1  symmetry.
 There are     1 symmetry adapted basis functions of A2  symmetry.
 There are     3 symmetry adapted basis functions of B1  symmetry.
 There are     5 symmetry adapted basis functions of B2  symmetry.
    19 basis functions,    36 primitive gaussians,    19 cartesian basis functions
     5 alpha electrons        5 beta electrons
       nuclear repulsion energy         9.1893367177 Hartrees.
 IExCor=  402 DFT=T Ex+Corr=B3LYP ExCW=0 ScaHFX=  0.200000
 ScaDFX=  0.800000  0.720000  1.000000  0.810000 ScalE2=  1.000000  1.000000
 IRadAn=      0 IRanWt=     -1 IRanGd=            0 ICorTp=0 IEmpDi=  4
 NAtoms=    3 NActive=    3 NUniq=    2 SFac= 2.25D+00 NAtFMM=   60 NAOKFM=F Big=F
 Integral buffers will be    131072 words long.
 Raffenetti 2 integral format.
 Two-electron integral symmetry is turned on.
 Leave Link  301 at Mon May 27 17:07:02 2019, MaxMem=   131072000 cpu:         0.0
 (Enter /applis/g09/l302.exe)
 NPDir=0 NMtPBC=     1 NCelOv=     1 NCel=       1 NClECP=     1 NCelD=      1
         NCelK=      1 NCelE2=     1 NClLst=     1 CellRange=     0.0.
 One-electron integrals computed using PRISM.
 One-electron integral symmetry used in STVInt
 NBasis=    19 RedAO= T EigKep=  4.15D-02  NBF=    10     1     3     5
 NBsUse=    19 1.00D-06 EigRej= -1.00D+00 NBFU=    10     1     3     5
 Precomputing XC quadrature grid using
 IXCGrd= 4 IRadAn=           0 IRanWt=          -1 IRanGd=           0 AccXCQ= 0.00D+00.
 Generated NRdTot=       0 NPtTot=           0 NUsed=           0 NTot=          32
 NSgBfM=    19    19    19    19    19 MxSgAt=     3 MxSgA2=     3.
 Leave Link  302 at Mon May 27 17:07:02 2019, MaxMem=   131072000 cpu:         0.1
 (Enter /applis/g09/l303.exe)
 DipDrv:  MaxL=1.
 Leave Link  303 at Mon May 27 17:07:02 2019, MaxMem=   131072000 cpu:         0.0
 (Enter /applis/g09/l401.exe)
 ExpMin= 1.61D-01 ExpMax= 5.48D+03 ExpMxC= 8.25D+02 IAcc=1 IRadAn=         1 AccDes= 0.00D+00
 Harris functional with IExCor=  402 and IRadAn=       1 diagonalized for initial guess.
 HarFok:  IExCor=  402 AccDes= 0.00D+00 IRadAn=         1 IDoV= 1 UseB2=F ITyADJ=14
 ICtDFT=  3500011 ScaDFX=  1.000000  1.000000  1.000000  1.000000
 FoFCou: FMM=F IPFlag=           0 FMFlag=      100000 FMFlg1=           0
         NFxFlg=           0 DoJE=T BraDBF=F KetDBF=T FulRan=T
         wScrn=  0.000000 ICntrl=     500 IOpCl=  0 I1Cent=   200000004 NGrid=           0
         NMat0=    1 NMatS0=      1 NMatT0=    0 NMatD0=    1 NMtDS0=    0 NMtDT0=    0
 Petite list used in FoFCou.
 Harris En= -76.4481825262935    
 JPrj=0 DoOrth=F DoCkMO=F.
 Initial guess orbital symmetries:
       Occupied  (A1) (A1) (B2) (A1) (B1)
       Virtual   (A1) (B2) (B2) (A1) (B1) (A1) (B2) (A1) (A1) (A2)
                 (B1) (A1) (B2) (A1)
 The electronic state of the initial guess is 1-A1.
 Leave Link  401 at Mon May 27 17:07:02 2019, MaxMem=   131072000 cpu:         0.1
 (Enter /applis/g09/l502.exe)
 Closed shell SCF:
 Using DIIS extrapolation, IDIIS=  1040.
 Integral symmetry usage will be decided dynamically.
 Keep R1 ints in memory in symmetry-blocked form, NReq=898557.
 IVT=       20213 IEndB=       20213 NGot=   131072000 MDV=   131045418
 LenX=   131045418 LenY=   131044536
 Requested convergence on RMS density matrix=1.00D-08 within 128 cycles.
 Requested convergence on MAX density matrix=1.00D-06.
 Requested convergence on             energy=1.00D-06.
 No special actions if energy rises.
 FoFCou: FMM=F IPFlag=           0 FMFlag=           0 FMFlg1=           0
         NFxFlg=           0 DoJE=F BraDBF=F KetDBF=F FulRan=T
         wScrn=  0.000000 ICntrl=     600 IOpCl=  0 I1Cent=           0 NGrid=           0
         NMat0=    1 NMatS0=    190 NMatT0=    0 NMatD0=    1 NMtDS0=    0 NMtDT0=    0
 Petite list used in FoFCou.
 Integral accuracy reduced to 1.0D-05 until final iterations.

 Cycle   1  Pass 0  IDiag  1:
 E= -76.3296514372666    
 DIIS: error= 8.09D-02 at cycle   1 NSaved=   1.
 NSaved= 1 IEnMin= 1 EnMin= -76.3296514372666     IErMin= 1 ErrMin= 8.09D-02
 ErrMax= 8.09D-02  0.00D+00 EMaxC= 1.00D-01 BMatC= 1.07D-01 BMatP= 1.07D-01
 IDIUse=3 WtCom= 1.91D-01 WtEn= 8.09D-01
 Coeff-Com:  0.100D+01
 Coeff-En:   0.100D+01
 Coeff:      0.100D+01
 Gap=     0.212 Goal=   None    Shift=    0.000
 GapD=    0.212 DampG=1.000 DampE=0.500 DampFc=0.5000 IDamp=-1.
 Damping current iteration by 5.00D-01
 RMSDP=2.99D-02 MaxDP=2.29D-01              OVMax= 2.01D-01

 Cycle   2  Pass 0  IDiag  1:
 E= -76.3571055334615     Delta-E=       -0.027454096195 Rises=F Damp=T
 DIIS: error= 1.88D-02 at cycle   2 NSaved=   2.
 NSaved= 2 IEnMin= 2 EnMin= -76.3571055334615     IErMin= 2 ErrMin= 1.88D-02
 ErrMax= 1.88D-02  0.00D+00 EMaxC= 1.00D-01 BMatC= 6.24D-03 BMatP= 1.07D-01
 IDIUse=3 WtCom= 8.12D-01 WtEn= 1.88D-01
 Coeff-Com:  0.180D+00 0.820D+00
 Coeff-En:   0.294D+00 0.706D+00
 Coeff:      0.201D+00 0.799D+00
 Gap=     0.344 Goal=   None    Shift=    0.000
 RMSDP=3.58D-03 MaxDP=3.84D-02 DE=-2.75D-02 OVMax= 1.12D-01

 Cycle   3  Pass 0  IDiag  1:
 E= -76.4085756518408     Delta-E=       -0.051470118379 Rises=F Damp=F
 DIIS: error= 3.20D-03 at cycle   3 NSaved=   3.
 NSaved= 3 IEnMin= 3 EnMin= -76.4085756518408     IErMin= 3 ErrMin= 3.20D-03
 ErrMax= 3.20D-03  0.00D+00 EMaxC= 1.00D-01 BMatC= 1.97D-04 BMatP= 6.24D-03
 IDIUse=3 WtCom= 9.68D-01 WtEn= 3.20D-02
 Coeff-Com:  0.375D-01-0.114D-01 0.974D+00
 Coeff-En:   0.000D+00 0.000D+00 0.100D+01
 Coeff:      0.363D-01-0.110D-01 0.975D+00
 Gap=     0.357 Goal=   None    Shift=    0.000
 RMSDP=4.75D-04 MaxDP=4.04D-03 DE=-5.15D-02 OVMax= 3.24D-03

 Cycle   4  Pass 0  IDiag  1:
 E= -76.4087089439652     Delta-E=       -0.000133292124 Rises=F Damp=F
 DIIS: error= 3.67D-04 at cycle   4 NSaved=   4.
 NSaved= 4 IEnMin= 4 EnMin= -76.4087089439652     IErMin= 4 ErrMin= 3.67D-04
 ErrMax= 3.67D-04  0.00D+00 EMaxC= 1.00D-01 BMatC= 2.06D-06 BMatP= 1.97D-04
 IDIUse=3 WtCom= 9.96D-01 WtEn= 3.67D-03
 Coeff-Com:  0.609D-02-0.174D-01 0.216D+00 0.795D+00
 Coeff-En:   0.000D+00 0.000D+00 0.000D+00 0.100D+01
 Coeff:      0.607D-02-0.174D-01 0.216D+00 0.796D+00
 Gap=     0.357 Goal=   None    Shift=    0.000
 RMSDP=3.84D-05 MaxDP=1.74D-04 DE=-1.33D-04 OVMax= 2.81D-04

 Cycle   5  Pass 0  IDiag  1:
 E= -76.4087104206209     Delta-E=       -0.000001476656 Rises=F Damp=F
 DIIS: error= 5.29D-05 at cycle   5 NSaved=   5.
 NSaved= 5 IEnMin= 5 EnMin= -76.4087104206209     IErMin= 5 ErrMin= 5.29D-05
 ErrMax= 5.29D-05  0.00D+00 EMaxC= 1.00D-01 BMatC= 3.95D-08 BMatP= 2.06D-06
 IDIUse=1 WtCom= 1.00D+00 WtEn= 0.00D+00
 Coeff-Com:  0.508D-03-0.312D-03-0.635D-03-0.598D-02 0.101D+01
 Coeff:      0.508D-03-0.312D-03-0.635D-03-0.598D-02 0.101D+01
 Gap=     0.357 Goal=   None    Shift=    0.000
 RMSDP=7.87D-06 MaxDP=7.09D-05 DE=-1.48D-06 OVMax= 4.30D-05

 Initial convergence to 1.0D-05 achieved.  Increase integral accuracy.
 Cycle   6  Pass 1  IDiag  1:
 E= -76.4087111724388     Delta-E=       -0.000000751818 Rises=F Damp=F
 DIIS: error= 1.96D-06 at cycle   1 NSaved=   1.
 NSaved= 1 IEnMin= 1 EnMin= -76.4087111724388     IErMin= 1 ErrMin= 1.96D-06
 ErrMax= 1.96D-06  0.00D+00 EMaxC= 1.00D-01 BMatC= 5.75D-11 BMatP= 5.75D-11
 IDIUse=1 WtCom= 1.00D+00 WtEn= 0.00D+00
 Coeff-Com:  0.100D+01
 Coeff:      0.100D+01
 Gap=     0.357 Goal=   None    Shift=    0.000
 RMSDP=7.87D-06 MaxDP=7.09D-05 DE=-7.52D-07 OVMax= 3.36D-06

 Cycle   7  Pass 1  IDiag  1:
 E= -76.4087111724888     Delta-E=       -0.000000000050 Rises=F Damp=F
 DIIS: error= 6.55D-07 at cycle   2 NSaved=   2.
 NSaved= 2 IEnMin= 2 EnMin= -76.4087111724888     IErMin= 2 ErrMin= 6.55D-07
 ErrMax= 6.55D-07  0.00D+00 EMaxC= 1.00D-01 BMatC= 1.04D-11 BMatP= 5.75D-11
 IDIUse=1 WtCom= 1.00D+00 WtEn= 0.00D+00
 Coeff-Com:  0.200D+00 0.800D+00
 Coeff:      0.200D+00 0.800D+00
 Gap=     0.357 Goal=   None    Shift=    0.000
 RMSDP=1.99D-07 MaxDP=1.59D-06 DE=-5.00D-11 OVMax= 1.49D-06

 Cycle   8  Pass 1  IDiag  1:
 E= -76.4087111724910     Delta-E=       -0.000000000002 Rises=F Damp=F
 DIIS: error= 7.06D-07 at cycle   3 NSaved=   3.
 NSaved= 3 IEnMin= 3 EnMin= -76.4087111724910     IErMin= 2 ErrMin= 6.55D-07
 ErrMax= 7.06D-07  0.00D+00 EMaxC= 1.00D-01 BMatC= 7.44D-12 BMatP= 1.04D-11
 IDIUse=1 WtCom= 1.00D+00 WtEn= 0.00D+00
 Coeff-Com:  0.294D-02 0.456D+00 0.541D+00
 Coeff:      0.294D-02 0.456D+00 0.541D+00
 Gap=     0.357 Goal=   None    Shift=    0.000
 RMSDP=9.87D-08 MaxDP=6.99D-07 DE=-2.23D-12 OVMax= 6.77D-07

 Cycle   9  Pass 1  IDiag  1:
 E= -76.4087111724961     Delta-E=       -0.000000000005 Rises=F Damp=F
 DIIS: error= 5.78D-08 at cycle   4 NSaved=   4.
 NSaved= 4 IEnMin= 4 EnMin= -76.4087111724961     IErMin= 4 ErrMin= 5.78D-08
 ErrMax= 5.78D-08  0.00D+00 EMaxC= 1.00D-01 BMatC= 6.91D-14 BMatP= 7.44D-12
 IDIUse=1 WtCom= 1.00D+00 WtEn= 0.00D+00
 Coeff-Com: -0.817D-02 0.919D-01 0.160D+00 0.757D+00
 Coeff:     -0.817D-02 0.919D-01 0.160D+00 0.757D+00
 Gap=     0.357 Goal=   None    Shift=    0.000
 RMSDP=7.42D-09 MaxDP=5.03D-08 DE=-5.13D-12 OVMax= 5.27D-08

 SCF Done:  E(RB3LYP) =  -76.4087111725     A.U. after    9 cycles
            NFock=  9  Conv=0.74D-08     -V/T= 2.0073
 KE= 7.585545743134D+01 PE=-1.989767808042D+02 EE= 3.752327548269D+01
 Leave Link  502 at Mon May 27 17:07:03 2019, MaxMem=   131072000 cpu:         0.2
 (Enter /applis/g09/l601.exe)
 Copying SCF densities to generalized density rwf, IOpCl= 0 IROHF=0.

 **********************************************************************

            Population analysis using the SCF density.

 **********************************************************************

 Orbital symmetries:
       Occupied  (A1) (A1) (B2) (A1) (B1)
       Virtual   (A1) (B2) (B2) (A1) (B1) (A1) (B2) (A1) (A1) (A2)
                 (B1) (A1) (B2) (A1)
 The electronic state is 1-A1.
 Alpha  occ. eigenvalues --  -19.13559  -1.00155  -0.52349  -0.37034  -0.29156
 Alpha virt. eigenvalues --    0.06582   0.15236   0.78235   0.86826   0.89102
 Alpha virt. eigenvalues --    0.89516   1.06962   1.19070   1.73045   1.74293
 Alpha virt. eigenvalues --    1.77963   2.29436   2.59801   3.55986
     Molecular Orbital Coefficients:
                           1         2         3         4         5
                        (A1)--O   (A1)--O   (B2)--O   (A1)--O   (B1)--O
     Eigenvalues --   -19.13559  -1.00155  -0.52349  -0.37034  -0.29156
   1 1   O  1S          0.99285  -0.20936   0.00000  -0.08746   0.00000
   2        2S          0.02623   0.46910   0.00000   0.17588   0.00000
   3        2PX         0.00000   0.00000   0.00000   0.00000   0.64418
   4        2PY         0.00000   0.00000   0.51842   0.00000   0.00000
   5        2PZ        -0.00110  -0.12858   0.00000   0.55472   0.00000
   6        3S          0.01022   0.43521   0.00000   0.40861   0.00000
   7        3PX         0.00000   0.00000   0.00000   0.00000   0.50647
   8        3PY         0.00000   0.00000   0.26681   0.00000   0.00000
   9        3PZ        -0.00001  -0.05936   0.00000   0.37563   0.00000
  10        4XX        -0.00775  -0.01065   0.00000   0.00000   0.00000
  11        4YY        -0.00779   0.01947   0.00000   0.00154   0.00000
  12        4ZZ        -0.00777   0.01581   0.00000  -0.05253   0.00000
  13        4XY         0.00000   0.00000   0.00000   0.00000   0.00000
  14        4XZ         0.00000   0.00000   0.00000   0.00000  -0.03569
  15        4YZ         0.00000   0.00000  -0.04108   0.00000   0.00000
  16 2   H  1S          0.00037   0.14127   0.23900  -0.14152   0.00000
  17        2S         -0.00106   0.00622   0.13825  -0.11077   0.00000
  18 3   H  1S          0.00037   0.14127  -0.23900  -0.14152   0.00000
  19        2S         -0.00106   0.00622  -0.13825  -0.11077   0.00000
                           6         7         8         9        10
                        (A1)--V   (B2)--V   (B2)--V   (A1)--V   (B1)--V
     Eigenvalues --     0.06582   0.15236   0.78235   0.86826   0.89102
   1 1   O  1S         -0.10171   0.00000   0.00000   0.03844   0.00000
   2        2S          0.11914   0.00000   0.00000  -0.08282   0.00000
   3        2PX         0.00000   0.00000   0.00000   0.00000  -0.95970
   4        2PY         0.00000  -0.40933  -0.17026   0.00000   0.00000
   5        2PZ        -0.27321   0.00000   0.00000   0.73706   0.00000
   6        3S          1.28553   0.00000   0.00000   0.01783   0.00000
   7        3PX         0.00000   0.00000   0.00000   0.00000   1.03843
   8        3PY         0.00000  -0.76758  -0.47666   0.00000   0.00000
   9        3PZ        -0.47140   0.00000   0.00000  -0.41711   0.00000
  10        4XX        -0.05913   0.00000   0.00000  -0.10081   0.00000
  11        4YY        -0.04575   0.00000   0.00000   0.17274   0.00000
  12        4ZZ        -0.02882   0.00000   0.00000   0.02364   0.00000
  13        4XY         0.00000   0.00000   0.00000   0.00000   0.00000
  14        4XZ         0.00000   0.00000   0.00000   0.00000  -0.01607
  15        4YZ         0.00000   0.01928  -0.19806   0.00000   0.00000
  16 2   H  1S         -0.09403   0.10172   0.84259   0.68723   0.00000
  17        2S         -0.98151   1.30026  -0.61565  -0.51516   0.00000
  18 3   H  1S         -0.09403  -0.10172  -0.84259   0.68723   0.00000
  19        2S         -0.98151  -1.30026   0.61565  -0.51516   0.00000
                          11        12        13        14        15
                        (A1)--V   (B2)--V   (A1)--V   (A1)--V   (A2)--V
     Eigenvalues --     0.89516   1.06962   1.19070   1.73045   1.74293
   1 1   O  1S          0.01466   0.00000  -0.08165   0.00778   0.00000
   2        2S         -0.80967   0.00000  -1.48438   0.09208   0.00000
   3        2PX         0.00000   0.00000   0.00000   0.00000   0.00000
   4        2PY         0.00000  -0.99295   0.00000   0.00000   0.00000
   5        2PZ        -0.52690   0.00000   0.39319  -0.00731   0.00000
   6        3S          1.32641   0.00000   3.66654  -0.26247   0.00000
   7        3PX         0.00000   0.00000   0.00000   0.00000   0.00000
   8        3PY         0.00000   1.64062   0.00000   0.00000   0.00000
   9        3PZ         0.83271   0.00000  -1.08303   0.14559   0.00000
  10        4XX        -0.32479   0.00000  -0.26747  -0.36794   0.00000
  11        4YY        -0.13289   0.00000  -0.65861  -0.57445   0.00000
  12        4ZZ        -0.27028   0.00000  -0.39202   1.01082   0.00000
  13        4XY         0.00000   0.00000   0.00000   0.00000   1.00000
  14        4XZ         0.00000   0.00000   0.00000   0.00000   0.00000
  15        4YZ         0.00000   0.00993   0.00000   0.00000   0.00000
  16 2   H  1S          0.51658   0.02749  -0.32839   0.08600   0.00000
  17        2S         -0.38584  -0.95227  -0.80379   0.04383   0.00000
  18 3   H  1S          0.51658  -0.02749  -0.32839   0.08600   0.00000
  19        2S         -0.38584   0.95227  -0.80379   0.04383   0.00000
                          16        17        18        19
                        (B1)--V   (A1)--V   (B2)--V   (A1)--V
     Eigenvalues --     1.77963   2.29436   2.59801   3.55986
   1 1   O  1S          0.00000  -0.05303   0.00000  -0.46924
   2        2S          0.00000  -0.50993   0.00000   0.27923
   3        2PX         0.00757   0.00000   0.00000   0.00000
   4        2PY         0.00000   0.00000   0.02641   0.00000
   5        2PZ         0.00000   0.05153   0.00000   0.11768
   6        3S          0.00000   1.56826   0.00000   3.72013
   7        3PX         0.03479   0.00000   0.00000   0.00000
   8        3PY         0.00000   0.00000  -0.88185   0.00000
   9        3PZ         0.00000  -0.74045   0.00000  -0.32987
  10        4XX         0.00000  -1.12741   0.00000  -1.57956
  11        4YY         0.00000   0.76311   0.00000  -1.53496
  12        4ZZ         0.00000   0.04237   0.00000  -1.55657
  13        4XY         0.00000   0.00000   0.00000   0.00000
  14        4XZ         0.99923   0.00000   0.00000   0.00000
  15        4YZ         0.00000   0.00000   1.28412   0.00000
  16 2   H  1S          0.00000  -0.83043   0.94917   0.12505
  17        2S          0.00000  -0.14724  -0.03522  -0.56618
  18 3   H  1S          0.00000  -0.83043  -0.94917   0.12505
  19        2S          0.00000  -0.14724   0.03522  -0.56618
     Density Matrix:
                           1         2         3         4         5
   1 1   O  1S          2.07445
   2        2S         -0.17509   0.50336
   3        2PX         0.00000   0.00000   0.82994
   4        2PY         0.00000   0.00000   0.00000   0.53753
   5        2PZ        -0.04539   0.07444   0.00000   0.00000   0.64850
   6        3S         -0.23342   0.55259   0.00000   0.00000   0.34139
   7        3PX         0.00000   0.00000   0.65251   0.00000   0.00000
   8        3PY         0.00000   0.00000   0.00000   0.27664   0.00000
   9        3PZ        -0.04087   0.07645   0.00000   0.00000   0.43201
  10        4XX        -0.01094  -0.01039   0.00000   0.00000   0.00276
  11        4YY        -0.02389   0.01840   0.00000   0.00000  -0.00328
  12        4ZZ        -0.01287  -0.00405   0.00000   0.00000  -0.06233
  13        4XY         0.00000   0.00000   0.00000   0.00000   0.00000
  14        4XZ         0.00000   0.00000  -0.04599   0.00000   0.00000
  15        4YZ         0.00000   0.00000   0.00000  -0.04260   0.00000
  16 2   H  1S         -0.03366   0.08278   0.00000   0.24781  -0.19334
  17        2S          0.01467  -0.03319   0.00000   0.14334  -0.12449
  18 3   H  1S         -0.03366   0.08278   0.00000  -0.24781  -0.19334
  19        2S          0.01467  -0.03319   0.00000  -0.14334  -0.12449
                           6         7         8         9        10
   6        3S          0.71295
   7        3PX         0.00000   0.51302
   8        3PY         0.00000   0.00000   0.14238
   9        3PZ         0.25531   0.00000   0.00000   0.28925
  10        4XX        -0.00942   0.00000   0.00000   0.00127   0.00035
  11        4YY         0.01805   0.00000   0.00000  -0.00115  -0.00029
  12        4ZZ        -0.02932   0.00000   0.00000  -0.04134  -0.00022
  13        4XY         0.00000   0.00000   0.00000   0.00000   0.00000
  14        4XZ         0.00000  -0.03616   0.00000   0.00000   0.00000
  15        4YZ         0.00000   0.00000  -0.02192   0.00000   0.00000
  16 2   H  1S          0.00732   0.00000   0.12754  -0.12309  -0.00301
  17        2S         -0.08513   0.00000   0.07377  -0.08396  -0.00012
  18 3   H  1S          0.00732   0.00000  -0.12754  -0.12309  -0.00301
  19        2S         -0.08513   0.00000  -0.07377  -0.08396  -0.00012
                          11        12        13        14        15
  11        4YY         0.00088
  12        4ZZ         0.00057   0.00614
  13        4XY         0.00000   0.00000   0.00000
  14        4XZ         0.00000   0.00000   0.00000   0.00255
  15        4YZ         0.00000   0.00000   0.00000   0.00000   0.00338
  16 2   H  1S          0.00506   0.01933   0.00000   0.00000  -0.01964
  17        2S         -0.00008   0.01185   0.00000   0.00000  -0.01136
  18 3   H  1S          0.00506   0.01933   0.00000   0.00000   0.01964
  19        2S         -0.00008   0.01185   0.00000   0.00000   0.01136
                          16        17        18        19
  16 2   H  1S          0.19422
  17        2S          0.09919   0.06285
  18 3   H  1S         -0.03428  -0.03297   0.19422
  19        2S         -0.03297  -0.01360   0.09919   0.06285
    Full Mulliken population analysis:
                           1         2         3         4         5
   1 1   O  1S          2.07445
   2        2S         -0.04092   0.50336
   3        2PX         0.00000   0.00000   0.82994
   4        2PY         0.00000   0.00000   0.00000   0.53753
   5        2PZ         0.00000   0.00000   0.00000   0.00000   0.64850
   6        3S         -0.03905   0.42198   0.00000   0.00000   0.00000
   7        3PX         0.00000   0.00000   0.32725   0.00000   0.00000
   8        3PY         0.00000   0.00000   0.00000   0.13874   0.00000
   9        3PZ         0.00000   0.00000   0.00000   0.00000   0.21666
  10        4XX        -0.00037  -0.00569   0.00000   0.00000   0.00000
  11        4YY        -0.00080   0.01007   0.00000   0.00000   0.00000
  12        4ZZ        -0.00043  -0.00222   0.00000   0.00000   0.00000
  13        4XY         0.00000   0.00000   0.00000   0.00000   0.00000
  14        4XZ         0.00000   0.00000   0.00000   0.00000   0.00000
  15        4YZ         0.00000   0.00000   0.00000   0.00000   0.00000
  16 2   H  1S         -0.00118   0.02060   0.00000   0.05652   0.03388
  17        2S          0.00101  -0.01262   0.00000   0.01680   0.01121
  18 3   H  1S         -0.00118   0.02060   0.00000   0.05652   0.03388
  19        2S          0.00101  -0.01262   0.00000   0.01680   0.01121
                           6         7         8         9        10
   6        3S          0.71295
   7        3PX         0.00000   0.51302
   8        3PY         0.00000   0.00000   0.14238
   9        3PZ         0.00000   0.00000   0.00000   0.28925
  10        4XX        -0.00659   0.00000   0.00000   0.00000   0.00035
  11        4YY         0.01262   0.00000   0.00000   0.00000  -0.00010
  12        4ZZ        -0.02050   0.00000   0.00000   0.00000  -0.00007
  13        4XY         0.00000   0.00000   0.00000   0.00000   0.00000
  14        4XZ         0.00000   0.00000   0.00000   0.00000   0.00000
  15        4YZ         0.00000   0.00000   0.00000   0.00000   0.00000
  16 2   H  1S          0.00313   0.00000   0.05905   0.04379  -0.00050
  17        2S         -0.05822   0.00000   0.02814   0.02460  -0.00005
  18 3   H  1S          0.00313   0.00000   0.05905   0.04379  -0.00050
  19        2S         -0.05822   0.00000   0.02814   0.02460  -0.00005
                          11        12        13        14        15
  11        4YY         0.00088
  12        4ZZ         0.00019   0.00614
  13        4XY         0.00000   0.00000   0.00000
  14        4XZ         0.00000   0.00000   0.00000   0.00255
  15        4YZ         0.00000   0.00000   0.00000   0.00000   0.00338
  16 2   H  1S          0.00208   0.00603   0.00000   0.00000   0.00639
  17        2S         -0.00004   0.00505   0.00000   0.00000   0.00067
  18 3   H  1S          0.00208   0.00603   0.00000   0.00000   0.00639
  19        2S         -0.00004   0.00505   0.00000   0.00000   0.00067
                          16        17        18        19
  16 2   H  1S          0.19422
  17        2S          0.06530   0.06285
  18 3   H  1S         -0.00175  -0.00736   0.19422
  19        2S         -0.00736  -0.00700   0.06530   0.06285
     Gross orbital populations:
                           1
   1 1   O  1S          1.99255
   2        2S          0.90254
   3        2PX         1.15719
   4        2PY         0.82291
   5        2PZ         0.95535
   6        3S          0.97123
   7        3PX         0.84027
   8        3PY         0.45548
   9        3PZ         0.64269
  10        4XX        -0.01356
  11        4YY         0.02695
  12        4ZZ         0.00527
  13        4XY         0.00000
  14        4XZ         0.00255
  15        4YZ         0.01751
  16 2   H  1S          0.48019
  17        2S          0.13034
  18 3   H  1S          0.48019
  19        2S          0.13034
          Condensed to atoms (all electrons):
               1          2          3
     1  O    8.286235   0.246347   0.246347
     2  H    0.246347   0.387660  -0.023470
     3  H    0.246347  -0.023470   0.387660
 Mulliken charges:
               1
     1  O   -0.778928
     2  H    0.389464
     3  H    0.389464
 Sum of Mulliken charges =   0.00000
 Mulliken charges with hydrogens summed into heavy atoms:
               1
     1  O    0.000000
 Electronic spatial extent (au):  <R**2>=             19.0333
 Charge=              0.0000 electrons
 Dipole moment (field-independent basis, Debye):
    X=              0.0000    Y=              0.0000    Z=             -2.0721  Tot=              2.0721
 Quadrupole moment (field-independent basis, Debye-Ang):
   XX=             -7.1817   YY=             -4.2450   ZZ=             -6.0172
   XY=              0.0000   XZ=              0.0000   YZ=              0.0000
 Traceless Quadrupole moment (field-independent basis, Debye-Ang):
   XX=             -1.3670   YY=              1.5696   ZZ=             -0.2026
   XY=              0.0000   XZ=              0.0000   YZ=              0.0000
 Octapole moment (field-independent basis, Debye-Ang**2):
  XXX=              0.0000  YYY=              0.0000  ZZZ=             -1.2100  XYY=              0.0000
  XXY=              0.0000  XXZ=             -0.3286  XZZ=              0.0000  YZZ=              0.0000
  YYZ=             -1.1949  XYZ=              0.0000
 Hexadecapole moment (field-independent basis, Debye-Ang**3):
 XXXX=             -5.1886 YYYY=             -5.9256 ZZZZ=             -6.1961 XXXY=              0.0000
 XXXZ=              0.0000 YYYX=              0.0000 YYYZ=              0.0000 ZZZX=              0.0000
 ZZZY=              0.0000 XXYY=             -2.0900 XXZZ=             -1.9427 YYZZ=             -1.7278
 XXYZ=              0.0000 YYXZ=              0.0000 ZZXY=              0.0000
 N-N= 9.189336717684D+00 E-N=-1.989767795300D+02  KE= 7.585545743134D+01
 Symmetry A1   KE= 6.767798078960D+01
 Symmetry A2   KE= 5.090907381524D-35
 Symmetry B1   KE= 4.596384437664D+00
 Symmetry B2   KE= 3.581092204075D+00
 Orbital energies and kinetic energies (alpha):
                                 1                 2
   1         (A1)--O         -19.135591         29.030559
   2         (A1)--O          -1.001553          2.575159
   3         (B2)--O          -0.523488          1.790546
   4         (A1)--O          -0.370343          2.233272
   5         (B1)--O          -0.291561          2.298192
   6         (A1)--V           0.065822          1.158957
   7         (B2)--V           0.152358          1.238103
   8         (B2)--V           0.782349          2.087133
   9         (A1)--V           0.868257          3.423156
  10         (B1)--V           0.891020          3.553938
  11         (A1)--V           0.895162          2.572634
  12         (B2)--V           1.069617          3.769851
  13         (A1)--V           1.190699          2.390246
  14         (A1)--V           1.730451          2.791023
  15         (A2)--V           1.742926          2.800000
  16         (B1)--V           1.779626          2.797059
  17         (A1)--V           2.294357          3.482677
  18         (B2)--V           2.598011          3.912199
  19         (A1)--V           3.559859          9.865759
 Total kinetic energy from orbitals= 7.585545743134D+01
 No NMR shielding tensors so no spin-rotation constants.
 Leave Link  601 at Mon May 27 17:07:03 2019, MaxMem=   131072000 cpu:         0.1
 (Enter /applis/g09/l701.exe)
 Compute integral first derivatives.
 ... and contract with generalized density number  0.
 Leave Link  701 at Mon May 27 17:07:03 2019, MaxMem=   131072000 cpu:         0.1
 (Enter /applis/g09/l702.exe)
 L702 exits ... SP integral derivatives will be done elsewhere.
 Leave Link  702 at Mon May 27 17:07:03 2019, MaxMem=   131072000 cpu:         0.0
 (Enter /applis/g09/l703.exe)
 Compute integral first derivatives, UseDBF=F ICtDFT=           0.
 Integral derivatives from FoFJK, PRISM(SPDF).
 Calling FoFJK, ICntrl=      2127 FMM=F ISym2X=1 I1Cent= 0 IOpClX= 0 NMat=1 NMatS=1 NMatT=0.
 FoFJK:  IHMeth= 1 ICntrl=    2127 DoSepK=F KAlg= 0 I1Cent=   0 FoldK=F
 IRaf=         0 NMat=   1 IRICut=       1 DoRegI=T DoRafI=F ISym2E= 1.
 FoFCou: FMM=F IPFlag=           0 FMFlag=      100000 FMFlg1=         800
         NFxFlg=           0 DoJE=F BraDBF=F KetDBF=F FulRan=T
         wScrn=  0.000000 ICntrl=    2127 IOpCl=  0 I1Cent=           0 NGrid=           0
         NMat0=    1 NMatS0=      1 NMatT0=    0 NMatD0=    1 NMtDS0=    0 NMtDT0=    0
 Petite list used in FoFCou.
 Leave Link  703 at Mon May 27 17:07:03 2019, MaxMem=   131072000 cpu:         0.1
 (Enter /applis/g09/l716.exe)
 Dipole        =-6.60118273D-17 0.00000000D+00-8.15220415D-01
 ***** Axes restored to original set *****
 -------------------------------------------------------------------
 Center     Atomic                   Forces (Hartrees/Bohr)
 Number     Number              X              Y              Z
 -------------------------------------------------------------------
      1        8           0.000000000    0.000000000    0.014883143
      2        1           0.000000000    0.007303133   -0.007441571
      3        1           0.000000000   -0.007303133   -0.007441571
 -------------------------------------------------------------------
 Cartesian Forces:  Max     0.014883143 RMS     0.006983579
 Leave Link  716 at Mon May 27 17:07:03 2019, MaxMem=   131072000 cpu:         0.0
 (Enter /applis/g09/l103.exe)

 GradGradGradGradGradGradGradGradGradGradGradGradGradGradGradGradGradGrad
 Berny optimization.
 FormGI is forming the generalized inverse of G from B-inverse, IUseBI=4.
 Internal  Forces:  Max     0.010325047 RMS     0.008565655
 Search for a local minimum.
 Step number   1 out of a maximum of   20
 All quantities printed in internal units (Hartrees-Bohrs-Radians)
 RMS Force = .85657D-02 SwitMx=.10000D-02 MixMth= 1
 Mixed Optimization -- RFO/linear search
 Second derivative matrix not updated -- first step.
 The second derivative matrix:
                          R1        R2        A1
           R1           0.55974
           R2           0.00000   0.55974
           A1           0.00000   0.00000   0.16000
 ITU=  0
     Eigenvalues ---    0.16000   0.55974   0.55974
 RFO step:  Lambda=-4.23626387D-04 EMin= 1.60000000D-01
 Linear search not attempted -- first point.
 Iteration  1 RMS(Cart)=  0.01175408 RMS(Int)=  0.00010735
 Iteration  2 RMS(Cart)=  0.00012101 RMS(Int)=  0.00000001
 Iteration  3 RMS(Cart)=  0.00000000 RMS(Int)=  0.00000000
 ITry= 1 IFail=0 DXMaxC= 1.54D-02 DCOld= 1.00D+10 DXMaxT= 3.00D-01 DXLimC= 3.00D+00 Rises=F
 ClnCor:  largest displacement from symmetrization is 8.01D-16 for atom     3.
 Variable       Old X    -DE/DX   Delta X   Delta X   Delta X     New X
                                 (Linear)    (Quad)   (Total)
    R1        1.80977   0.01033   0.00000   0.01843   0.01843   1.82820
    R2        1.80977   0.01033   0.00000   0.01843   0.01843   1.82820
    A1        1.83130  -0.00263   0.00000  -0.01637  -0.01637   1.81493
         Item               Value     Threshold  Converged?
 Maximum Force            0.010325     0.000450     NO 
 RMS     Force            0.008566     0.000300     NO 
 Maximum Displacement     0.015373     0.001800     NO 
 RMS     Displacement     0.011746     0.001200     NO 
 Predicted change in Energy=-2.120141D-04
 Lowest energy point so far.  Saving SCF results.
 GradGradGradGradGradGradGradGradGradGradGradGradGradGradGradGradGradGrad

 Leave Link  103 at Mon May 27 17:07:03 2019, MaxMem=   131072000 cpu:         0.0
 (Enter /applis/g09/l202.exe)
                          Input orientation:                          
 ---------------------------------------------------------------------
 Center     Atomic      Atomic             Coordinates (Angstroms)
 Number     Number       Type             X           Y           Z
 ---------------------------------------------------------------------
      1          8           0        0.000000    0.000000   -0.102869
      2          1           0        0.000000    0.762291   -0.698566
      3          1           0        0.000000   -0.762291   -0.698566
 ---------------------------------------------------------------------
                    Distance matrix (angstroms):
                    1          2          3
     1  O    0.000000
     2  H    0.967441   0.000000
     3  H    0.967441   1.524581   0.000000
 Stoichiometry    H2O
 Framework group  C2V[C2(O),SGV(H2)]
 Deg. of freedom     2
 Full point group                 C2V     NOp   4
 RotChk:  IX=0 Diff= 2.22D-16
 Largest Abelian subgroup         C2V     NOp   4
 Largest concise Abelian subgroup C2      NOp   2
                         Standard orientation:                         
 ---------------------------------------------------------------------
 Center     Atomic      Atomic             Coordinates (Angstroms)
 Number     Number       Type             X           Y           Z
 ---------------------------------------------------------------------
      1          8           0        0.000000    0.000000    0.119139
      2          1           0        0.000000    0.762291   -0.476557
      3          1           0        0.000000   -0.762291   -0.476557
 ---------------------------------------------------------------------
 Rotational constants (GHZ):    795.6040750    431.4801114    279.7585844
 Leave Link  202 at Mon May 27 17:07:03 2019, MaxMem=   131072000 cpu:         0.0
 (Enter /applis/g09/l301.exe)
 Standard basis: 6-31G(d) (6D, 7F)
 Ernie: Thresh=  0.10000D-02 Tol=  0.10000D-05 Strict=F.
 There are    10 symmetry adapted cartesian basis functions of A1  symmetry.
 There are     1 symmetry adapted cartesian basis functions of A2  symmetry.
 There are     3 symmetry adapted cartesian basis functions of B1  symmetry.
 There are     5 symmetry adapted cartesian basis functions of B2  symmetry.
 There are    10 symmetry adapted basis functions of A1  symmetry.
 There are     1 symmetry adapted basis functions of A2  symmetry.
 There are     3 symmetry adapted basis functions of B1  symmetry.
 There are     5 symmetry adapted basis functions of B2  symmetry.
    19 basis functions,    36 primitive gaussians,    19 cartesian basis functions
     5 alpha electrons        5 beta electrons
       nuclear repulsion energy         9.0988828821 Hartrees.
 IExCor=  402 DFT=T Ex+Corr=B3LYP ExCW=0 ScaHFX=  0.200000
 ScaDFX=  0.800000  0.720000  1.000000  0.810000 ScalE2=  1.000000  1.000000
 IRadAn=      0 IRanWt=     -1 IRanGd=            0 ICorTp=0 IEmpDi=  4
 NAtoms=    3 NActive=    3 NUniq=    2 SFac= 2.25D+00 NAtFMM=   60 NAOKFM=F Big=F
 Integral buffers will be    131072 words long.
 Raffenetti 2 integral format.
 Two-electron integral symmetry is turned on.
 Leave Link  301 at Mon May 27 17:07:03 2019, MaxMem=   131072000 cpu:         0.0
 (Enter /applis/g09/l302.exe)
 NPDir=0 NMtPBC=     1 NCelOv=     1 NCel=       1 NClECP=     1 NCelD=      1
         NCelK=      1 NCelE2=     1 NClLst=     1 CellRange=     0.0.
 One-electron integrals computed using PRISM.
 One-electron integral symmetry used in STVInt
 NBasis=    19 RedAO= T EigKep=  4.22D-02  NBF=    10     1     3     5
 NBsUse=    19 1.00D-06 EigRej= -1.00D+00 NBFU=    10     1     3     5
 Precomputing XC quadrature grid using
 IXCGrd= 4 IRadAn=           0 IRanWt=          -1 IRanGd=           0 AccXCQ= 0.00D+00.
 Generated NRdTot=       0 NPtTot=           0 NUsed=           0 NTot=          32
 NSgBfM=    19    19    19    19    19 MxSgAt=     3 MxSgA2=     3.
 Leave Link  302 at Mon May 27 17:07:04 2019, MaxMem=   131072000 cpu:         0.1
 (Enter /applis/g09/l303.exe)
 DipDrv:  MaxL=1.
 Leave Link  303 at Mon May 27 17:07:04 2019, MaxMem=   131072000 cpu:         0.0
 (Enter /applis/g09/l401.exe)
 Initial guess from the checkpoint file:  "OPT.chk"
 B after Tr=     0.000000    0.000000    0.000000
         Rot=    1.000000    0.000000    0.000000    0.000000 Ang=   0.00 deg.
 Guess basis will be translated and rotated to current coordinates.
 JPrj=2 DoOrth=T DoCkMO=T.
 Initial guess orbital symmetries:
       Occupied  (A1) (A1) (B2) (A1) (B1)
       Virtual   (A1) (A1) (A1) (A1) (A1) (A1) (A1) (A2) (B1) (B1)
                 (B2) (B2) (B2) (B2)
 The electronic state of the initial guess is 1-A1.
 Leave Link  401 at Mon May 27 17:07:04 2019, MaxMem=   131072000 cpu:         0.1
 (Enter /applis/g09/l502.exe)
 Closed shell SCF:
 Using DIIS extrapolation, IDIIS=  1040.
 Integral symmetry usage will be decided dynamically.
 Keep R1 ints in memory in symmetry-blocked form, NReq=898557.
 IVT=       20213 IEndB=       20213 NGot=   131072000 MDV=   131045418
 LenX=   131045418 LenY=   131044536
 Requested convergence on RMS density matrix=1.00D-08 within 128 cycles.
 Requested convergence on MAX density matrix=1.00D-06.
 Requested convergence on             energy=1.00D-06.
 No special actions if energy rises.
 FoFCou: FMM=F IPFlag=           0 FMFlag=           0 FMFlg1=           0
         NFxFlg=           0 DoJE=F BraDBF=F KetDBF=F FulRan=T
         wScrn=  0.000000 ICntrl=     600 IOpCl=  0 I1Cent=           0 NGrid=           0
         NMat0=    1 NMatS0=    190 NMatT0=    0 NMatD0=    1 NMtDS0=    0 NMtDT0=    0
 Petite list used in FoFCou.

 Cycle   1  Pass 1  IDiag  1:
 E= -76.4088714369066    
 DIIS: error= 2.04D-03 at cycle   1 NSaved=   1.
 NSaved= 1 IEnMin= 1 EnMin= -76.4088714369066     IErMin= 1 ErrMin= 2.04D-03
 ErrMax= 2.04D-03  0.00D+00 EMaxC= 1.00D-01 BMatC= 5.64D-05 BMatP= 5.64D-05
 IDIUse=3 WtCom= 9.80D-01 WtEn= 2.04D-02
 Coeff-Com:  0.100D+01
 Coeff-En:   0.100D+01
 Coeff:      0.100D+01
 Gap=     1.381 Goal=   None    Shift=    0.000
 GapD=    1.381 DampG=2.000 DampE=1.000 DampFc=2.0000 IDamp=-1.
 RMSDP=7.44D-04 MaxDP=6.12D-03              OVMax= 4.80D-03

 Cycle   2  Pass 1  IDiag  1:
 E= -76.4089138425992     Delta-E=       -0.000042405693 Rises=F Damp=F
 DIIS: error= 1.79D-03 at cycle   2 NSaved=   2.
 NSaved= 2 IEnMin= 2 EnMin= -76.4089138425992     IErMin= 2 ErrMin= 1.79D-03
 ErrMax= 1.79D-03  0.00D+00 EMaxC= 1.00D-01 BMatC= 4.93D-05 BMatP= 5.64D-05
 IDIUse=3 WtCom= 9.82D-01 WtEn= 1.79D-02
 Coeff-Com:  0.478D+00 0.522D+00
 Coeff-En:   0.117D+00 0.883D+00
 Coeff:      0.472D+00 0.528D+00
 Gap=     0.355 Goal=   None    Shift=    0.000
 RMSDP=2.94D-04 MaxDP=1.98D-03 DE=-4.24D-05 OVMax= 2.08D-03

 Cycle   3  Pass 1  IDiag  1:
 E= -76.4089453126612     Delta-E=       -0.000031470062 Rises=F Damp=F
 DIIS: error= 4.80D-04 at cycle   3 NSaved=   3.
 NSaved= 3 IEnMin= 3 EnMin= -76.4089453126612     IErMin= 3 ErrMin= 4.80D-04
 ErrMax= 4.80D-04  0.00D+00 EMaxC= 1.00D-01 BMatC= 3.83D-06 BMatP= 4.93D-05
 IDIUse=3 WtCom= 9.95D-01 WtEn= 4.80D-03
 Coeff-Com: -0.124D-01 0.211D+00 0.801D+00
 Coeff-En:   0.000D+00 0.143D-01 0.986D+00
 Coeff:     -0.123D-01 0.211D+00 0.802D+00
 Gap=     0.354 Goal=   None    Shift=    0.000
 RMSDP=7.71D-05 MaxDP=6.04D-04 DE=-3.15D-05 OVMax= 6.33D-04

 Cycle   4  Pass 1  IDiag  1:
 E= -76.4089480730031     Delta-E=       -0.000002760342 Rises=F Damp=F
 DIIS: error= 3.61D-05 at cycle   4 NSaved=   4.
 NSaved= 4 IEnMin= 4 EnMin= -76.4089480730031     IErMin= 4 ErrMin= 3.61D-05
 ErrMax= 3.61D-05  0.00D+00 EMaxC= 1.00D-01 BMatC= 1.82D-08 BMatP= 3.83D-06
 IDIUse=1 WtCom= 1.00D+00 WtEn= 0.00D+00
 Coeff-Com: -0.782D-02 0.351D-01 0.169D+00 0.804D+00
 Coeff:     -0.782D-02 0.351D-01 0.169D+00 0.804D+00
 Gap=     0.354 Goal=   None    Shift=    0.000
 RMSDP=4.42D-06 MaxDP=2.78D-05 DE=-2.76D-06 OVMax= 4.20D-05

 Cycle   5  Pass 1  IDiag  1:
 E= -76.4089480870908     Delta-E=       -0.000000014088 Rises=F Damp=F
 DIIS: error= 1.87D-06 at cycle   5 NSaved=   5.
 NSaved= 5 IEnMin= 5 EnMin= -76.4089480870908     IErMin= 5 ErrMin= 1.87D-06
 ErrMax= 1.87D-06  0.00D+00 EMaxC= 1.00D-01 BMatC= 7.75D-11 BMatP= 1.82D-08
 IDIUse=1 WtCom= 1.00D+00 WtEn= 0.00D+00
 Coeff-Com:  0.696D-04-0.248D-02-0.982D-02 0.233D-01 0.989D+00
 Coeff:      0.696D-04-0.248D-02-0.982D-02 0.233D-01 0.989D+00
 Gap=     0.354 Goal=   None    Shift=    0.000
 RMSDP=8.93D-07 MaxDP=7.65D-06 DE=-1.41D-08 OVMax= 7.92D-06

 Cycle   6  Pass 1  IDiag  1:
 E= -76.4089480872001     Delta-E=       -0.000000000109 Rises=F Damp=F
 DIIS: error= 3.48D-07 at cycle   6 NSaved=   6.
 NSaved= 6 IEnMin= 6 EnMin= -76.4089480872001     IErMin= 6 ErrMin= 3.48D-07
 ErrMax= 3.48D-07  0.00D+00 EMaxC= 1.00D-01 BMatC= 1.56D-12 BMatP= 7.75D-11
 IDIUse=1 WtCom= 1.00D+00 WtEn= 0.00D+00
 Coeff-Com:  0.293D-04-0.109D-03 0.408D-04-0.727D-02-0.652D-01 0.107D+01
 Coeff:      0.293D-04-0.109D-03 0.408D-04-0.727D-02-0.652D-01 0.107D+01
 Gap=     0.354 Goal=   None    Shift=    0.000
 RMSDP=6.64D-08 MaxDP=4.34D-07 DE=-1.09D-10 OVMax= 5.91D-07

 Cycle   7  Pass 1  IDiag  1:
 E= -76.4089480872016     Delta-E=       -0.000000000002 Rises=F Damp=F
 DIIS: error= 9.05D-09 at cycle   7 NSaved=   7.
 NSaved= 7 IEnMin= 7 EnMin= -76.4089480872016     IErMin= 7 ErrMin= 9.05D-09
 ErrMax= 9.05D-09  0.00D+00 EMaxC= 1.00D-01 BMatC= 1.15D-15 BMatP= 1.56D-12
 IDIUse=1 WtCom= 1.00D+00 WtEn= 0.00D+00
 Coeff-Com: -0.172D-05 0.144D-04 0.168D-04 0.423D-03 0.119D-02-0.597D-01
 Coeff-Com:  0.106D+01
 Coeff:     -0.172D-05 0.144D-04 0.168D-04 0.423D-03 0.119D-02-0.597D-01
 Coeff:      0.106D+01
 Gap=     0.354 Goal=   None    Shift=    0.000
 RMSDP=2.69D-09 MaxDP=2.36D-08 DE=-1.56D-12 OVMax= 2.22D-08

 SCF Done:  E(RB3LYP) =  -76.4089480872     A.U. after    7 cycles
            NFock=  7  Conv=0.27D-08     -V/T= 2.0077
 KE= 7.582322061519D+01 PE=-1.987804973956D+02 EE= 3.744944581114D+01
 Leave Link  502 at Mon May 27 17:07:04 2019, MaxMem=   131072000 cpu:         0.2
 (Enter /applis/g09/l701.exe)
 Compute integral first derivatives.
 ... and contract with generalized density number  0.
 Leave Link  701 at Mon May 27 17:07:04 2019, MaxMem=   131072000 cpu:         0.1
 (Enter /applis/g09/l702.exe)
 L702 exits ... SP integral derivatives will be done elsewhere.
 Leave Link  702 at Mon May 27 17:07:04 2019, MaxMem=   131072000 cpu:         0.0
 (Enter /applis/g09/l703.exe)
 Compute integral first derivatives, UseDBF=F ICtDFT=           0.
 Integral derivatives from FoFJK, PRISM(SPDF).
 Calling FoFJK, ICntrl=      2127 FMM=F ISym2X=1 I1Cent= 0 IOpClX= 0 NMat=1 NMatS=1 NMatT=0.
 FoFJK:  IHMeth= 1 ICntrl=    2127 DoSepK=F KAlg= 0 I1Cent=   0 FoldK=F
 IRaf=         0 NMat=   1 IRICut=       1 DoRegI=T DoRafI=F ISym2E= 1.
 FoFCou: FMM=F IPFlag=           0 FMFlag=      100000 FMFlg1=         800
         NFxFlg=           0 DoJE=F BraDBF=F KetDBF=F FulRan=T
         wScrn=  0.000000 ICntrl=    2127 IOpCl=  0 I1Cent=           0 NGrid=           0
         NMat0=    1 NMatS0=      1 NMatT0=    0 NMatD0=    1 NMtDS0=    0 NMtDT0=    0
 Petite list used in FoFCou.
 Leave Link  703 at Mon May 27 17:07:04 2019, MaxMem=   131072000 cpu:         0.1
 (Enter /applis/g09/l716.exe)
 Dipole        =-6.60272677D-17 0.00000000D+00-8.22197124D-01
 ***** Axes restored to original set *****
 -------------------------------------------------------------------
 Center     Atomic                   Forces (Hartrees/Bohr)
 Number     Number              X              Y              Z
 -------------------------------------------------------------------
      1        8           0.000000000    0.000000000    0.002088541
      2        1           0.000000000    0.000546628   -0.001044270
      3        1           0.000000000   -0.000546628   -0.001044270
 -------------------------------------------------------------------
 Cartesian Forces:  Max     0.002088541 RMS     0.000890731
 Leave Link  716 at Mon May 27 17:07:04 2019, MaxMem=   131072000 cpu:         0.0
 (Enter /applis/g09/l103.exe)

 GradGradGradGradGradGradGradGradGradGradGradGradGradGradGradGradGradGrad
 Berny optimization.
 Using GEDIIS/GDIIS optimizer.
 FormGI is forming the generalized inverse of G from B-inverse, IUseBI=4.
 Internal  Forces:  Max     0.001073717 RMS     0.001015870
 Search for a local minimum.
 Step number   2 out of a maximum of   20
 All quantities printed in internal units (Hartrees-Bohrs-Radians)
 RMS Force = .10159D-02 SwitMx=.10000D-02 MixMth= 1
 Mixed Optimization -- RFO/linear search
 Update second derivatives using D2CorX and points    1    2
 DE= -2.37D-04 DEPred=-2.12D-04 R= 1.12D+00
 TightC=F SS=  1.41D+00  RLast= 3.08D-02 DXNew= 5.0454D-01 9.2346D-02
 Trust test= 1.12D+00 RLast= 3.08D-02 DXMaxT set to 3.00D-01
 The second derivative matrix:
                          R1        R2        A1
           R1           0.53986
           R2          -0.01987   0.53986
           A1           0.02035   0.02035   0.15196
 ITU=  1  0
 Use linear search instead of GDIIS.
     Eigenvalues ---    0.14972   0.52223   0.55974
 RFO step:  Lambda=-3.03134472D-06 EMin= 1.49719482D-01
 Quartic linear search produced a step of  0.15207.
 Iteration  1 RMS(Cart)=  0.00335857 RMS(Int)=  0.00000987
 Iteration  2 RMS(Cart)=  0.00001072 RMS(Int)=  0.00000000
 Iteration  3 RMS(Cart)=  0.00000000 RMS(Int)=  0.00000000
 ITry= 1 IFail=0 DXMaxC= 4.22D-03 DCOld= 1.00D+10 DXMaxT= 3.00D-01 DXLimC= 3.00D+00 Rises=F
 ClnCor:  largest displacement from symmetrization is 4.40D-16 for atom     1.
 Variable       Old X    -DE/DX   Delta X   Delta X   Delta X     New X
                                 (Linear)    (Quad)   (Total)
    R1        1.82820   0.00107   0.00280  -0.00040   0.00241   1.83060
    R2        1.82820   0.00107   0.00280  -0.00040   0.00241   1.83060
    A1        1.81493  -0.00089  -0.00249  -0.00424  -0.00673   1.80820
         Item               Value     Threshold  Converged?
 Maximum Force            0.001074     0.000450     NO 
 RMS     Force            0.001016     0.000300     NO 
 Maximum Displacement     0.004218     0.001800     NO 
 RMS     Displacement     0.003364     0.001200     NO 
 Predicted change in Energy=-5.357272D-06
 Lowest energy point so far.  Saving SCF results.
 GradGradGradGradGradGradGradGradGradGradGradGradGradGradGradGradGradGrad

 Leave Link  103 at Mon May 27 17:07:04 2019, MaxMem=   131072000 cpu:         0.0
 (Enter /applis/g09/l202.exe)
                          Input orientation:                          
 ---------------------------------------------------------------------
 Center     Atomic      Atomic             Coordinates (Angstroms)
 Number     Number       Type             X           Y           Z
 ---------------------------------------------------------------------
      1          8           0        0.000000    0.000000   -0.100637
      2          1           0        0.000000    0.761283   -0.699682
      3          1           0        0.000000   -0.761283   -0.699682
 ---------------------------------------------------------------------
                    Distance matrix (angstroms):
                    1          2          3
     1  O    0.000000
     2  H    0.968714   0.000000
     3  H    0.968714   1.522566   0.000000
 Stoichiometry    H2O
 Framework group  C2V[C2(O),SGV(H2)]
 Deg. of freedom     2
 Full point group                 C2V     NOp   4
 RotChk:  IX=0 Diff= 1.33D-15
 Largest Abelian subgroup         C2V     NOp   4
 Largest concise Abelian subgroup C2      NOp   2
                         Standard orientation:                         
 ---------------------------------------------------------------------
 Center     Atomic      Atomic             Coordinates (Angstroms)
 Number     Number       Type             X           Y           Z
 ---------------------------------------------------------------------
      1          8           0        0.000000    0.000000    0.119809
      2          1           0        0.000000    0.761283   -0.479236
      3          1           0        0.000000   -0.761283   -0.479236
 ---------------------------------------------------------------------
 Rotational constants (GHZ):    786.7362194    432.6234524    279.1305529
 Leave Link  202 at Mon May 27 17:07:04 2019, MaxMem=   131072000 cpu:         0.0
 (Enter /applis/g09/l301.exe)
 Standard basis: 6-31G(d) (6D, 7F)
 Ernie: Thresh=  0.10000D-02 Tol=  0.10000D-05 Strict=F.
 There are    10 symmetry adapted cartesian basis functions of A1  symmetry.
 There are     1 symmetry adapted cartesian basis functions of A2  symmetry.
 There are     3 symmetry adapted cartesian basis functions of B1  symmetry.
 There are     5 symmetry adapted cartesian basis functions of B2  symmetry.
 There are    10 symmetry adapted basis functions of A1  symmetry.
 There are     1 symmetry adapted basis functions of A2  symmetry.
 There are     3 symmetry adapted basis functions of B1  symmetry.
 There are     5 symmetry adapted basis functions of B2  symmetry.
    19 basis functions,    36 primitive gaussians,    19 cartesian basis functions
     5 alpha electrons        5 beta electrons
       nuclear repulsion energy         9.0878444568 Hartrees.
 IExCor=  402 DFT=T Ex+Corr=B3LYP ExCW=0 ScaHFX=  0.200000
 ScaDFX=  0.800000  0.720000  1.000000  0.810000 ScalE2=  1.000000  1.000000
 IRadAn=      0 IRanWt=     -1 IRanGd=            0 ICorTp=0 IEmpDi=  4
 NAtoms=    3 NActive=    3 NUniq=    2 SFac= 2.25D+00 NAtFMM=   60 NAOKFM=F Big=F
 Integral buffers will be    131072 words long.
 Raffenetti 2 integral format.
 Two-electron integral symmetry is turned on.
 Leave Link  301 at Mon May 27 17:07:04 2019, MaxMem=   131072000 cpu:         0.0
 (Enter /applis/g09/l302.exe)
 NPDir=0 NMtPBC=     1 NCelOv=     1 NCel=       1 NClECP=     1 NCelD=      1
         NCelK=      1 NCelE2=     1 NClLst=     1 CellRange=     0.0.
 One-electron integrals computed using PRISM.
 One-electron integral symmetry used in STVInt
 NBasis=    19 RedAO= T EigKep=  4.23D-02  NBF=    10     1     3     5
 NBsUse=    19 1.00D-06 EigRej= -1.00D+00 NBFU=    10     1     3     5
 Precomputing XC quadrature grid using
 IXCGrd= 4 IRadAn=           0 IRanWt=          -1 IRanGd=           0 AccXCQ= 0.00D+00.
 Generated NRdTot=       0 NPtTot=           0 NUsed=           0 NTot=          32
 NSgBfM=    19    19    19    19    19 MxSgAt=     3 MxSgA2=     3.
 Leave Link  302 at Mon May 27 17:07:04 2019, MaxMem=   131072000 cpu:         0.1
 (Enter /applis/g09/l303.exe)
 DipDrv:  MaxL=1.
 Leave Link  303 at Mon May 27 17:07:04 2019, MaxMem=   131072000 cpu:         0.0
 (Enter /applis/g09/l401.exe)
 Initial guess from the checkpoint file:  "OPT.chk"
 B after Tr=     0.000000    0.000000    0.000000
         Rot=    1.000000    0.000000    0.000000    0.000000 Ang=   0.00 deg.
 Guess basis will be translated and rotated to current coordinates.
 JPrj=2 DoOrth=T DoCkMO=T.
 Initial guess orbital symmetries:
       Occupied  (A1) (A1) (B2) (A1) (B1)
       Virtual   (A1) (A1) (A1) (A1) (A1) (A1) (A1) (A2) (B1) (B1)
                 (B2) (B2) (B2) (B2)
 The electronic state of the initial guess is 1-A1.
 Leave Link  401 at Mon May 27 17:07:04 2019, MaxMem=   131072000 cpu:         0.1
 (Enter /applis/g09/l502.exe)
 Closed shell SCF:
 Using DIIS extrapolation, IDIIS=  1040.
 Integral symmetry usage will be decided dynamically.
 Keep R1 ints in memory in symmetry-blocked form, NReq=898557.
 IVT=       20213 IEndB=       20213 NGot=   131072000 MDV=   131045418
 LenX=   131045418 LenY=   131044536
 Requested convergence on RMS density matrix=1.00D-08 within 128 cycles.
 Requested convergence on MAX density matrix=1.00D-06.
 Requested convergence on             energy=1.00D-06.
 No special actions if energy rises.
 FoFCou: FMM=F IPFlag=           0 FMFlag=           0 FMFlg1=           0
         NFxFlg=           0 DoJE=F BraDBF=F KetDBF=F FulRan=T
         wScrn=  0.000000 ICntrl=     600 IOpCl=  0 I1Cent=           0 NGrid=           0
         NMat0=    1 NMatS0=    190 NMatT0=    0 NMatD0=    1 NMtDS0=    0 NMtDT0=    0
 Petite list used in FoFCou.

 Cycle   1  Pass 1  IDiag  1:
 E= -76.4089502513037    
 DIIS: error= 3.14D-04 at cycle   1 NSaved=   1.
 NSaved= 1 IEnMin= 1 EnMin= -76.4089502513037     IErMin= 1 ErrMin= 3.14D-04
 ErrMax= 3.14D-04  0.00D+00 EMaxC= 1.00D-01 BMatC= 2.02D-06 BMatP= 2.02D-06
 IDIUse=3 WtCom= 9.97D-01 WtEn= 3.14D-03
 Coeff-Com:  0.100D+01
 Coeff-En:   0.100D+01
 Coeff:      0.100D+01
 Gap=     1.378 Goal=   None    Shift=    0.000
 RMSDP=1.50D-04 MaxDP=1.24D-03              OVMax= 9.60D-04

 Cycle   2  Pass 1  IDiag  1:
 E= -76.4089525525699     Delta-E=       -0.000002301266 Rises=F Damp=F
 DIIS: error= 2.54D-04 at cycle   2 NSaved=   2.
 NSaved= 2 IEnMin= 2 EnMin= -76.4089525525699     IErMin= 2 ErrMin= 2.54D-04
 ErrMax= 2.54D-04  0.00D+00 EMaxC= 1.00D-01 BMatC= 1.02D-06 BMatP= 2.02D-06
 IDIUse=3 WtCom= 9.97D-01 WtEn= 2.54D-03
 Coeff-Com:  0.373D+00 0.627D+00
 Coeff-En:   0.000D+00 0.100D+01
 Coeff:      0.372D+00 0.628D+00
 Gap=     0.354 Goal=   None    Shift=    0.000
 RMSDP=5.07D-05 MaxDP=3.35D-04 DE=-2.30D-06 OVMax= 3.70D-04

 Cycle   3  Pass 1  IDiag  1:
 E= -76.4089530736060     Delta-E=       -0.000000521036 Rises=F Damp=F
 DIIS: error= 1.30D-04 at cycle   3 NSaved=   3.
 NSaved= 3 IEnMin= 3 EnMin= -76.4089530736060     IErMin= 3 ErrMin= 1.30D-04
 ErrMax= 1.30D-04  0.00D+00 EMaxC= 1.00D-01 BMatC= 2.77D-07 BMatP= 1.02D-06
 IDIUse=3 WtCom= 9.99D-01 WtEn= 1.30D-03
 Coeff-Com: -0.315D-01 0.342D+00 0.690D+00
 Coeff-En:   0.000D+00 0.229D+00 0.771D+00
 Coeff:     -0.315D-01 0.342D+00 0.690D+00
 Gap=     0.354 Goal=   None    Shift=    0.000
 RMSDP=1.88D-05 MaxDP=1.34D-04 DE=-5.21D-07 OVMax= 1.45D-04

 Cycle   4  Pass 1  IDiag  1:
 E= -76.4089532698996     Delta-E=       -0.000000196294 Rises=F Damp=F
 DIIS: error= 1.16D-06 at cycle   4 NSaved=   4.
 NSaved= 4 IEnMin= 4 EnMin= -76.4089532698996     IErMin= 4 ErrMin= 1.16D-06
 ErrMax= 1.16D-06  0.00D+00 EMaxC= 1.00D-01 BMatC= 1.35D-11 BMatP= 2.77D-07
 IDIUse=1 WtCom= 1.00D+00 WtEn= 0.00D+00
 Coeff-Com: -0.267D-03-0.669D-02-0.163D-01 0.102D+01
 Coeff:     -0.267D-03-0.669D-02-0.163D-01 0.102D+01
 Gap=     0.354 Goal=   None    Shift=    0.000
 RMSDP=5.30D-07 MaxDP=4.27D-06 DE=-1.96D-07 OVMax= 5.09D-06

 Cycle   5  Pass 1  IDiag  1:
 E= -76.4089532699300     Delta-E=       -0.000000000030 Rises=F Damp=F
 DIIS: error= 2.17D-07 at cycle   5 NSaved=   5.
 NSaved= 5 IEnMin= 5 EnMin= -76.4089532699300     IErMin= 5 ErrMin= 2.17D-07
 ErrMax= 2.17D-07  0.00D+00 EMaxC= 1.00D-01 BMatC= 1.00D-12 BMatP= 1.35D-11
 IDIUse=1 WtCom= 1.00D+00 WtEn= 0.00D+00
 Coeff-Com:  0.175D-03-0.244D-02-0.353D-02 0.412D-01 0.965D+00
 Coeff:      0.175D-03-0.244D-02-0.353D-02 0.412D-01 0.965D+00
 Gap=     0.354 Goal=   None    Shift=    0.000
 RMSDP=4.27D-08 MaxDP=2.74D-07 DE=-3.05D-11 OVMax= 4.24D-07

 Cycle   6  Pass 1  IDiag  1:
 E= -76.4089532699311     Delta-E=       -0.000000000001 Rises=F Damp=F
 DIIS: error= 3.65D-08 at cycle   6 NSaved=   6.
 NSaved= 6 IEnMin= 6 EnMin= -76.4089532699311     IErMin= 6 ErrMin= 3.65D-08
 ErrMax= 3.65D-08  0.00D+00 EMaxC= 1.00D-01 BMatC= 2.91D-14 BMatP= 1.00D-12
 IDIUse=1 WtCom= 1.00D+00 WtEn= 0.00D+00
 Coeff-Com:  0.351D-04-0.329D-03-0.168D-03-0.243D-01 0.182D+00 0.843D+00
 Coeff:      0.351D-04-0.329D-03-0.168D-03-0.243D-01 0.182D+00 0.843D+00
 Gap=     0.354 Goal=   None    Shift=    0.000
 RMSDP=8.28D-09 MaxDP=5.62D-08 DE=-1.04D-12 OVMax= 4.89D-08

 SCF Done:  E(RB3LYP) =  -76.4089532699     A.U. after    6 cycles
            NFock=  6  Conv=0.83D-08     -V/T= 2.0078
 KE= 7.581967973832D+01 PE=-1.987558647801D+02 EE= 3.743938731502D+01
 Leave Link  502 at Mon May 27 17:07:05 2019, MaxMem=   131072000 cpu:         0.2
 (Enter /applis/g09/l701.exe)
 Compute integral first derivatives.
 ... and contract with generalized density number  0.
 Leave Link  701 at Mon May 27 17:07:05 2019, MaxMem=   131072000 cpu:         0.1
 (Enter /applis/g09/l702.exe)
 L702 exits ... SP integral derivatives will be done elsewhere.
 Leave Link  702 at Mon May 27 17:07:05 2019, MaxMem=   131072000 cpu:         0.0
 (Enter /applis/g09/l703.exe)
 Compute integral first derivatives, UseDBF=F ICtDFT=           0.
 Integral derivatives from FoFJK, PRISM(SPDF).
 Calling FoFJK, ICntrl=      2127 FMM=F ISym2X=1 I1Cent= 0 IOpClX= 0 NMat=1 NMatS=1 NMatT=0.
 FoFJK:  IHMeth= 1 ICntrl=    2127 DoSepK=F KAlg= 0 I1Cent=   0 FoldK=F
 IRaf=         0 NMat=   1 IRICut=       1 DoRegI=T DoRafI=F ISym2E= 1.
 FoFCou: FMM=F IPFlag=           0 FMFlag=      100000 FMFlg1=         800
         NFxFlg=           0 DoJE=F BraDBF=F KetDBF=F FulRan=T
         wScrn=  0.000000 ICntrl=    2127 IOpCl=  0 I1Cent=           0 NGrid=           0
         NMat0=    1 NMatS0=      1 NMatT0=    0 NMatD0=    1 NMtDS0=    0 NMtDT0=    0
 Petite list used in FoFCou.
 Leave Link  703 at Mon May 27 17:07:05 2019, MaxMem=   131072000 cpu:         0.1
 (Enter /applis/g09/l716.exe)
 Dipole        =-6.58731612D-17 0.00000000D+00-8.24675199D-01
 ***** Axes restored to original set *****
 -------------------------------------------------------------------
 Center     Atomic                   Forces (Hartrees/Bohr)
 Number     Number              X              Y              Z
 -------------------------------------------------------------------
      1        8           0.000000000    0.000000000   -0.000064222
      2        1           0.000000000    0.000096998    0.000032111
      3        1           0.000000000   -0.000096998    0.000032111
 -------------------------------------------------------------------
 Cartesian Forces:  Max     0.000096998 RMS     0.000052709
 Leave Link  716 at Mon May 27 17:07:05 2019, MaxMem=   131072000 cpu:         0.0
 (Enter /applis/g09/l103.exe)

 GradGradGradGradGradGradGradGradGradGradGradGradGradGradGradGradGradGrad
 Berny optimization.
 Using GEDIIS/GDIIS optimizer.
 FormGI is forming the generalized inverse of G from B-inverse, IUseBI=4.
 Internal  Forces:  Max     0.000156000 RMS     0.000101145
 Search for a local minimum.
 Step number   3 out of a maximum of   20
 All quantities printed in internal units (Hartrees-Bohrs-Radians)
 RMS Force = .10115D-03 SwitMx=.10000D-02 MixMth= 2
 Mixed Optimization -- En-DIIS/RFO-DIIS
 Update second derivatives using D2CorX and points    1    2    3
 DE= -5.18D-06 DEPred=-5.36D-06 R= 9.67D-01
 TightC=F SS=  1.41D+00  RLast= 7.54D-03 DXNew= 5.0454D-01 2.2616D-02
 Trust test= 9.67D-01 RLast= 7.54D-03 DXMaxT set to 3.00D-01
 The second derivative matrix:
                          R1        R2        A1
           R1           0.51759
           R2          -0.04215   0.51759
           A1           0.01875   0.01875   0.16872
 ITU=  1  1  0
 Use linear search instead of GDIIS.
     Eigenvalues ---    0.16645   0.47772   0.55974
 RFO step:  Lambda=-9.99079807D-08 EMin= 1.66450216D-01
 Quartic linear search produced a step of -0.06530.
 Iteration  1 RMS(Cart)=  0.00055044 RMS(Int)=  0.00000016
 Iteration  2 RMS(Cart)=  0.00000012 RMS(Int)=  0.00000000
 ITry= 1 IFail=0 DXMaxC= 5.78D-04 DCOld= 1.00D+10 DXMaxT= 3.00D-01 DXLimC= 3.00D+00 Rises=F
 ClnCor:  largest displacement from symmetrization is 2.22D-16 for atom     3.
 Variable       Old X    -DE/DX   Delta X   Delta X   Delta X     New X
                                 (Linear)    (Quad)   (Total)
    R1        1.83060   0.00006  -0.00016   0.00024   0.00008   1.83069
    R2        1.83060   0.00006  -0.00016   0.00024   0.00008   1.83069
    A1        1.80820   0.00016   0.00044   0.00047   0.00091   1.80911
         Item               Value     Threshold  Converged?
 Maximum Force            0.000156     0.000450     YES
 RMS     Force            0.000101     0.000300     YES
 Maximum Displacement     0.000578     0.001800     YES
 RMS     Displacement     0.000550     0.001200     YES
 Predicted change in Energy=-7.535092D-08
 Optimization completed.
    -- Stationary point found.
                           ----------------------------
                           !   Optimized Parameters   !
                           ! (Angstroms and Degrees)  !
 --------------------------                            --------------------------
 ! Name  Definition              Value          Derivative Info.                !
 --------------------------------------------------------------------------------
 ! R1    R(1,2)                  0.9687         -DE/DX =    0.0001              !
 ! R2    R(1,3)                  0.9687         -DE/DX =    0.0001              !
 ! A1    A(2,1,3)              103.6024         -DE/DX =    0.0002              !
 --------------------------------------------------------------------------------
 Lowest energy point so far.  Saving SCF results.
 GradGradGradGradGradGradGradGradGradGradGradGradGradGradGradGradGradGrad

 Largest change from initial coordinates is atom    2       0.013 Angstoms.
 Leave Link  103 at Mon May 27 17:07:05 2019, MaxMem=   131072000 cpu:         0.0
 (Enter /applis/g09/l202.exe)
                          Input orientation:                          
 ---------------------------------------------------------------------
 Center     Atomic      Atomic             Coordinates (Angstroms)
 Number     Number       Type             X           Y           Z
 ---------------------------------------------------------------------
      1          8           0        0.000000    0.000000   -0.100637
      2          1           0        0.000000    0.761283   -0.699682
      3          1           0        0.000000   -0.761283   -0.699682
 ---------------------------------------------------------------------
                    Distance matrix (angstroms):
                    1          2          3
     1  O    0.000000
     2  H    0.968714   0.000000
     3  H    0.968714   1.522566   0.000000
 Stoichiometry    H2O
 Framework group  C2V[C2(O),SGV(H2)]
 Deg. of freedom     2
 Full point group                 C2V     NOp   4
 RotChk:  IX=0 Diff= 5.89D-16
 Largest Abelian subgroup         C2V     NOp   4
 Largest concise Abelian subgroup C2      NOp   2
                         Standard orientation:                         
 ---------------------------------------------------------------------
 Center     Atomic      Atomic             Coordinates (Angstroms)
 Number     Number       Type             X           Y           Z
 ---------------------------------------------------------------------
      1          8           0        0.000000    0.000000    0.119809
      2          1           0        0.000000    0.761283   -0.479236
      3          1           0        0.000000   -0.761283   -0.479236
 ---------------------------------------------------------------------
 Rotational constants (GHZ):    786.7362194    432.6234524    279.1305529
 Leave Link  202 at Mon May 27 17:07:05 2019, MaxMem=   131072000 cpu:         0.0
 (Enter /applis/g09/l601.exe)
 Copying SCF densities to generalized density rwf, IOpCl= 0 IROHF=0.

 **********************************************************************

            Population analysis using the SCF density.

 **********************************************************************

 Orbital symmetries:
       Occupied  (A1) (A1) (B2) (A1) (B1)
       Virtual   (A1) (B2) (B2) (A1) (B1) (A1) (B2) (A1) (A1) (A2)
                 (B1) (A1) (B2) (A1)
 The electronic state is 1-A1.
 Alpha  occ. eigenvalues --  -19.13819  -0.99793  -0.51705  -0.37232  -0.29121
 Alpha virt. eigenvalues --    0.06260   0.14811   0.77228   0.86107   0.89077
 Alpha virt. eigenvalues --    0.89514   1.06574   1.19362   1.72895   1.74641
 Alpha virt. eigenvalues --    1.77975   2.28058   2.57704   3.55182
     Molecular Orbital Coefficients:
                           1         2         3         4         5
                        (A1)--O   (A1)--O   (B2)--O   (A1)--O   (B1)--O
     Eigenvalues --   -19.13819  -0.99793  -0.51705  -0.37232  -0.29121
   1 1   O  1S          0.99286  -0.20949   0.00000  -0.08813   0.00000
   2        2S          0.02622   0.46920   0.00000   0.17734   0.00000
   3        2PX         0.00000   0.00000   0.00000   0.00000   0.64459
   4        2PY         0.00000   0.00000   0.51746   0.00000   0.00000
   5        2PZ        -0.00110  -0.12775   0.00000   0.55175   0.00000
   6        3S          0.01011   0.43949   0.00000   0.41055   0.00000
   7        3PX         0.00000   0.00000   0.00000   0.00000   0.50604
   8        3PY         0.00000   0.00000   0.26981   0.00000   0.00000
   9        3PZ         0.00000  -0.06068   0.00000   0.37203   0.00000
  10        4XX        -0.00772  -0.01094   0.00000  -0.00027   0.00000
  11        4YY        -0.00777   0.01876   0.00000   0.00089   0.00000
  12        4ZZ        -0.00775   0.01610   0.00000  -0.05244   0.00000
  13        4XY         0.00000   0.00000   0.00000   0.00000   0.00000
  14        4XZ         0.00000   0.00000   0.00000   0.00000  -0.03545
  15        4YZ         0.00000   0.00000  -0.04129   0.00000   0.00000
  16 2   H  1S          0.00037   0.13916   0.23741  -0.14378   0.00000
  17        2S         -0.00103   0.00645   0.14201  -0.11429   0.00000
  18 3   H  1S          0.00037   0.13916  -0.23741  -0.14378   0.00000
  19        2S         -0.00103   0.00645  -0.14201  -0.11429   0.00000
                           6         7         8         9        10
                        (A1)--V   (B2)--V   (B2)--V   (A1)--V   (B1)--V
     Eigenvalues --     0.06260   0.14811   0.77228   0.86107   0.89077
   1 1   O  1S         -0.10062   0.00000   0.00000   0.03770   0.00000
   2        2S          0.11926   0.00000   0.00000  -0.13335   0.00000
   3        2PX         0.00000   0.00000   0.00000   0.00000  -0.95943
   4        2PY         0.00000  -0.41347  -0.17191   0.00000   0.00000
   5        2PZ        -0.28076   0.00000   0.00000   0.71004   0.00000
   6        3S          1.25766   0.00000   0.00000   0.13210   0.00000
   7        3PX         0.00000   0.00000   0.00000   0.00000   1.03863
   8        3PY         0.00000  -0.75869  -0.43049   0.00000   0.00000
   9        3PZ        -0.47764   0.00000   0.00000  -0.38642   0.00000
  10        4XX        -0.05804   0.00000   0.00000  -0.11841   0.00000
  11        4YY        -0.04508   0.00000   0.00000   0.15369   0.00000
  12        4ZZ        -0.02729   0.00000   0.00000   0.01270   0.00000
  13        4XY         0.00000   0.00000   0.00000   0.00000   0.00000
  14        4XZ         0.00000   0.00000   0.00000   0.00000  -0.01641
  15        4YZ         0.00000   0.01843  -0.19595   0.00000   0.00000
  16 2   H  1S         -0.09622   0.10742   0.84016   0.71004   0.00000
  17        2S         -0.96900   1.27786  -0.65554  -0.55106   0.00000
  18 3   H  1S         -0.09622  -0.10742  -0.84016   0.71004   0.00000
  19        2S         -0.96900  -1.27786   0.65554  -0.55106   0.00000
                          11        12        13        14        15
                        (A1)--V   (B2)--V   (A1)--V   (A1)--V   (A2)--V
     Eigenvalues --     0.89514   1.06574   1.19362   1.72895   1.74641
   1 1   O  1S          0.01062   0.00000  -0.08197   0.00743   0.00000
   2        2S         -0.83734   0.00000  -1.45691   0.09008   0.00000
   3        2PX         0.00000   0.00000   0.00000   0.00000   0.00000
   4        2PY         0.00000  -0.98925   0.00000   0.00000   0.00000
   5        2PZ        -0.55564   0.00000   0.40255  -0.00911   0.00000
   6        3S          1.41218   0.00000   3.59596  -0.25228   0.00000
   7        3PX         0.00000   0.00000   0.00000   0.00000   0.00000
   8        3PY         0.00000   1.62774   0.00000   0.00000   0.00000
   9        3PZ         0.82578   0.00000  -1.10644   0.14356   0.00000
  10        4XX        -0.32814   0.00000  -0.24993  -0.34303   0.00000
  11        4YY        -0.15690   0.00000  -0.65752  -0.59669   0.00000
  12        4ZZ        -0.27701   0.00000  -0.39336   1.00679   0.00000
  13        4XY         0.00000   0.00000   0.00000   0.00000   1.00000
  14        4XZ         0.00000   0.00000   0.00000   0.00000   0.00000
  15        4YZ         0.00000   0.01589   0.00000   0.00000   0.00000
  16 2   H  1S          0.47012   0.01965  -0.35288   0.08163   0.00000
  17        2S         -0.37551  -0.92672  -0.77275   0.04227   0.00000
  18 3   H  1S          0.47012  -0.01965  -0.35288   0.08163   0.00000
  19        2S         -0.37551   0.92672  -0.77275   0.04227   0.00000
                          16        17        18        19
                        (B1)--V   (A1)--V   (B2)--V   (A1)--V
     Eigenvalues --     1.77975   2.28058   2.57704   3.55182
   1 1   O  1S          0.00000  -0.05165   0.00000  -0.46794
   2        2S          0.00000  -0.51505   0.00000   0.28674
   3        2PX         0.00711   0.00000   0.00000   0.00000
   4        2PY         0.00000   0.00000   0.03685   0.00000
   5        2PZ         0.00000   0.06302   0.00000   0.11666
   6        3S          0.00000   1.53940   0.00000   3.68937
   7        3PX         0.03501   0.00000   0.00000   0.00000
   8        3PY         0.00000   0.00000  -0.84173   0.00000
   9        3PZ         0.00000  -0.73967   0.00000  -0.33415
  10        4XX         0.00000  -1.13148   0.00000  -1.57875
  11        4YY         0.00000   0.73536   0.00000  -1.52607
  12        4ZZ         0.00000   0.07177   0.00000  -1.54956
  13        4XY         0.00000   0.00000   0.00000   0.00000
  14        4XZ         0.99924   0.00000   0.00000   0.00000
  15        4YZ         0.00000   0.00000   1.27214   0.00000
  16 2   H  1S          0.00000  -0.81249   0.92333   0.11574
  17        2S          0.00000  -0.14155  -0.05042  -0.55445
  18 3   H  1S          0.00000  -0.81249  -0.92333   0.11574
  19        2S          0.00000  -0.14155   0.05042  -0.55445
     Density Matrix:
                           1         2         3         4         5
   1 1   O  1S          2.07485
   2        2S         -0.17577   0.50457
   3        2PX         0.00000   0.00000   0.83098
   4        2PY         0.00000   0.00000   0.00000   0.53554
   5        2PZ        -0.04592   0.07575   0.00000   0.00000   0.64149
   6        3S         -0.23643   0.55856   0.00000   0.00000   0.34073
   7        3PX         0.00000   0.00000   0.65237   0.00000   0.00000
   8        3PY         0.00000   0.00000   0.00000   0.27923   0.00000
   9        3PZ        -0.04016   0.07501   0.00000   0.00000   0.42604
  10        4XX        -0.01071  -0.01076   0.00000   0.00000   0.00252
  11        4YY        -0.02344   0.01751   0.00000   0.00000  -0.00380
  12        4ZZ        -0.01288  -0.00390   0.00000   0.00000  -0.06196
  13        4XY         0.00000   0.00000   0.00000   0.00000   0.00000
  14        4XZ         0.00000   0.00000  -0.04570   0.00000   0.00000
  15        4YZ         0.00000   0.00000   0.00000  -0.04273   0.00000
  16 2   H  1S         -0.03223   0.07961   0.00000   0.24571  -0.19421
  17        2S          0.01539  -0.03454   0.00000   0.14697  -0.12777
  18 3   H  1S         -0.03223   0.07961   0.00000  -0.24571  -0.19421
  19        2S          0.01539  -0.03454   0.00000  -0.14697  -0.12777
                           6         7         8         9        10
   6        3S          0.72362
   7        3PX         0.00000   0.51215
   8        3PY         0.00000   0.00000   0.14559
   9        3PZ         0.25214   0.00000   0.00000   0.28418
  10        4XX        -0.00999   0.00000   0.00000   0.00113   0.00036
  11        4YY         0.01706   0.00000   0.00000  -0.00162  -0.00029
  12        4ZZ        -0.02907   0.00000   0.00000  -0.04097  -0.00020
  13        4XY         0.00000   0.00000   0.00000   0.00000   0.00000
  14        4XZ         0.00000  -0.03588   0.00000   0.00000   0.00000
  15        4YZ         0.00000   0.00000  -0.02228   0.00000   0.00000
  16 2   H  1S          0.00427   0.00000   0.12811  -0.12387  -0.00297
  17        2S         -0.08820   0.00000   0.07663  -0.08582  -0.00006
  18 3   H  1S          0.00427   0.00000  -0.12811  -0.12387  -0.00297
  19        2S         -0.08820   0.00000  -0.07663  -0.08582  -0.00006
                          11        12        13        14        15
  11        4YY         0.00083
  12        4ZZ         0.00063   0.00614
  13        4XY         0.00000   0.00000   0.00000
  14        4XZ         0.00000   0.00000   0.00000   0.00251
  15        4YZ         0.00000   0.00000   0.00000   0.00000   0.00341
  16 2   H  1S          0.00496   0.01955   0.00000   0.00000  -0.01960
  17        2S          0.00006   0.01221   0.00000   0.00000  -0.01173
  18 3   H  1S          0.00496   0.01955   0.00000   0.00000   0.01960
  19        2S          0.00006   0.01221   0.00000   0.00000   0.01173
                          16        17        18        19
  16 2   H  1S          0.19280
  17        2S          0.10209   0.06655
  18 3   H  1S         -0.03266  -0.03277   0.19280
  19        2S         -0.03277  -0.01412   0.10209   0.06655
    Full Mulliken population analysis:
                           1         2         3         4         5
   1 1   O  1S          2.07485
   2        2S         -0.04108   0.50457
   3        2PX         0.00000   0.00000   0.83098
   4        2PY         0.00000   0.00000   0.00000   0.53554
   5        2PZ         0.00000   0.00000   0.00000   0.00000   0.64149
   6        3S         -0.03955   0.42654   0.00000   0.00000   0.00000
   7        3PX         0.00000   0.00000   0.32718   0.00000   0.00000
   8        3PY         0.00000   0.00000   0.00000   0.14004   0.00000
   9        3PZ         0.00000   0.00000   0.00000   0.00000   0.21367
  10        4XX        -0.00036  -0.00589   0.00000   0.00000   0.00000
  11        4YY        -0.00079   0.00958   0.00000   0.00000   0.00000
  12        4ZZ        -0.00043  -0.00213   0.00000   0.00000   0.00000
  13        4XY         0.00000   0.00000   0.00000   0.00000   0.00000
  14        4XZ         0.00000   0.00000   0.00000   0.00000   0.00000
  15        4YZ         0.00000   0.00000   0.00000   0.00000   0.00000
  16 2   H  1S         -0.00108   0.01921   0.00000   0.05427   0.03376
  17        2S          0.00105  -0.01300   0.00000   0.01708   0.01169
  18 3   H  1S         -0.00108   0.01921   0.00000   0.05427   0.03376
  19        2S          0.00105  -0.01300   0.00000   0.01708   0.01169
                           6         7         8         9        10
   6        3S          0.72362
   7        3PX         0.00000   0.51215
   8        3PY         0.00000   0.00000   0.14559
   9        3PZ         0.00000   0.00000   0.00000   0.28418
  10        4XX        -0.00698   0.00000   0.00000   0.00000   0.00036
  11        4YY         0.01192   0.00000   0.00000   0.00000  -0.00010
  12        4ZZ        -0.02032   0.00000   0.00000   0.00000  -0.00007
  13        4XY         0.00000   0.00000   0.00000   0.00000   0.00000
  14        4XZ         0.00000   0.00000   0.00000   0.00000   0.00000
  15        4YZ         0.00000   0.00000   0.00000   0.00000   0.00000
  16 2   H  1S          0.00180   0.00000   0.05857   0.04456  -0.00048
  17        2S         -0.05986   0.00000   0.02908   0.02562  -0.00003
  18 3   H  1S          0.00180   0.00000   0.05857   0.04456  -0.00048
  19        2S         -0.05986   0.00000   0.02908   0.02562  -0.00003
                          11        12        13        14        15
  11        4YY         0.00083
  12        4ZZ         0.00021   0.00614
  13        4XY         0.00000   0.00000   0.00000
  14        4XZ         0.00000   0.00000   0.00000   0.00251
  15        4YZ         0.00000   0.00000   0.00000   0.00000   0.00341
  16 2   H  1S          0.00199   0.00606   0.00000   0.00000   0.00636
  17        2S          0.00002   0.00517   0.00000   0.00000   0.00071
  18 3   H  1S          0.00199   0.00606   0.00000   0.00000   0.00636
  19        2S          0.00002   0.00517   0.00000   0.00000   0.00071
                          16        17        18        19
  16 2   H  1S          0.19280
  17        2S          0.06721   0.06655
  18 3   H  1S         -0.00164  -0.00728   0.19280
  19        2S         -0.00728  -0.00724   0.06721   0.06655
     Gross orbital populations:
                           1
   1 1   O  1S          1.99259
   2        2S          0.90400
   3        2PX         1.15816
   4        2PY         0.81829
   5        2PZ         0.94604
   6        3S          0.97910
   7        3PX         0.83933
   8        3PY         0.46093
   9        3PZ         0.63823
  10        4XX        -0.01405
  11        4YY         0.02568
  12        4ZZ         0.00587
  13        4XY         0.00000
  14        4XZ         0.00251
  15        4YZ         0.01756
  16 2   H  1S          0.47611
  17        2S          0.13677
  18 3   H  1S          0.47611
  19        2S          0.13677
          Condensed to atoms (all electrons):
               1          2          3
     1  O    8.289110   0.242563   0.242563
     2  H    0.242563   0.393759  -0.023439
     3  H    0.242563  -0.023439   0.393759
 Mulliken charges:
               1
     1  O   -0.774236
     2  H    0.387118
     3  H    0.387118
 Sum of Mulliken charges =   0.00000
 Mulliken charges with hydrogens summed into heavy atoms:
               1
     1  O    0.000000
 Electronic spatial extent (au):  <R**2>=             19.1865
 Charge=              0.0000 electrons
 Dipole moment (field-independent basis, Debye):
    X=              0.0000    Y=              0.0000    Z=             -2.0961  Tot=              2.0961
 Quadrupole moment (field-independent basis, Debye-Ang):
   XX=             -7.2039   YY=             -4.2888   ZZ=             -5.9885
   XY=              0.0000   XZ=              0.0000   YZ=              0.0000
 Traceless Quadrupole moment (field-independent basis, Debye-Ang):
   XX=             -1.3768   YY=              1.5383   ZZ=             -0.1615
   XY=              0.0000   XZ=              0.0000   YZ=              0.0000
 Octapole moment (field-independent basis, Debye-Ang**2):
  XXX=              0.0000  YYY=              0.0000  ZZZ=             -1.2180  XYY=              0.0000
  XXY=              0.0000  XXZ=             -0.3237  XZZ=              0.0000  YZZ=              0.0000
  YYZ=             -1.2126  XYZ=              0.0000
 Hexadecapole moment (field-independent basis, Debye-Ang**3):
 XXXX=             -5.2143 YYYY=             -6.0624 ZZZZ=             -6.2955 XXXY=              0.0000
 XXXZ=              0.0000 YYYX=              0.0000 YYYZ=              0.0000 ZZZX=              0.0000
 ZZZY=              0.0000 XXYY=             -2.1172 XXZZ=             -1.9683 YYZZ=             -1.7415
 XXYZ=              0.0000 YYXZ=              0.0000 ZZXY=              0.0000
 N-N= 9.087844456835D+00 E-N=-1.987558653663D+02  KE= 7.581967973832D+01
 Symmetry A1   KE= 6.765907425092D+01
 Symmetry A2   KE= 4.944677409514D-35
 Symmetry B1   KE= 4.599987445231D+00
 Symmetry B2   KE= 3.560618042173D+00
 Orbital energies and kinetic energies (alpha):
                                 1                 2
   1         (A1)--O         -19.138194         29.031301
   2         (A1)--O          -0.997930          2.574021
   3         (B2)--O          -0.517054          1.780309
   4         (A1)--O          -0.372320          2.224215
   5         (B1)--O          -0.291207          2.299994
   6         (A1)--V           0.062595          1.172336
   7         (B2)--V           0.148109          1.258587
   8         (B2)--V           0.772278          2.074763
   9         (A1)--V           0.861070          3.373898
  10         (B1)--V           0.890768          3.552154
  11         (A1)--V           0.895139          2.596561
  12         (B2)--V           1.065741          3.744532
  13         (A1)--V           1.193624          2.393746
  14         (A1)--V           1.728949          2.790868
  15         (A2)--V           1.746410          2.800000
  16         (B1)--V           1.779746          2.797041
  17         (A1)--V           2.280576          3.466380
  18         (B2)--V           2.577040          3.889735
  19         (A1)--V           3.551820          9.847319
 Total kinetic energy from orbitals= 7.581967973832D+01
 No NMR shielding tensors so no spin-rotation constants.
 Leave Link  601 at Mon May 27 17:07:05 2019, MaxMem=   131072000 cpu:         0.1
 (Enter /applis/g09/l9999.exe)
 1\1\GINC-MOLTECH-CALC0\FOpt\RB3LYP\6-31G(d)\H2O1\TCAUCHY\27-May-2019\0
 \\#P OPT B3LYP 6-31G* Direct gfprint pop=(full)\\OPT H20 B3LYP 6-31G*\
 \0,1\O,0.,0.,-0.1006369329\H,0.,0.7612827676,-0.6996815335\H,0.,-0.761
 2827676,-0.6996815335\\Version=EM64L-G09RevD.01\State=1-A1\HF=-76.4089
 533\RMSD=8.279e-09\RMSF=5.271e-05\Dipole=0.,0.,-0.8246752\Quadrupole=-
 1.0236193,1.1436551,-0.1200359,0.,0.,0.\PG=C02V [C2(O1),SGV(H2)]\\@


 EDUCATION IS NOT TRAINING BUT RATHER THE PROCESS THAT EQUIPS YOU TO
 ENTERTAIN YOURSELF, A FRIEND, OR AN IDEA.  -- WALLACE STERLING
 Job cpu time:       0 days  0 hours  0 minutes  2.8 seconds.
 File lengths (MBytes):  RWF=      5 Int=      0 D2E=      0 Chk=      1 Scr=      1
 Normal termination of Gaussian 09 at Mon May 27 17:07:05 2019.
