 Entering Gaussian System, Link 0=g09
 Input=H2O_OPT_ES.inp
 Output=H2O_OPT_ES.log
 Initial command:
 /applis/g09/l1.exe "/tmp/Gau-12152.inp" -scrdir="/tmp/"
 Entering Link 1 = /applis/g09/l1.exe PID=     12154.
  
 Copyright (c) 1988,1990,1992,1993,1995,1998,2003,2009,2013,
            Gaussian, Inc.  All Rights Reserved.
  
 This is part of the Gaussian(R) 09 program.  It is based on
 the Gaussian(R) 03 system (copyright 2003, Gaussian, Inc.),
 the Gaussian(R) 98 system (copyright 1998, Gaussian, Inc.),
 the Gaussian(R) 94 system (copyright 1995, Gaussian, Inc.),
 the Gaussian 92(TM) system (copyright 1992, Gaussian, Inc.),
 the Gaussian 90(TM) system (copyright 1990, Gaussian, Inc.),
 the Gaussian 88(TM) system (copyright 1988, Gaussian, Inc.),
 the Gaussian 86(TM) system (copyright 1986, Carnegie Mellon
 University), and the Gaussian 82(TM) system (copyright 1983,
 Carnegie Mellon University). Gaussian is a federally registered
 trademark of Gaussian, Inc.
  
 This software contains proprietary and confidential information,
 including trade secrets, belonging to Gaussian, Inc.
  
 This software is provided under written license and may be
 used, copied, transmitted, or stored only in accord with that
 written license.
  
 The following legend is applicable only to US Government
 contracts under FAR:
  
                    RESTRICTED RIGHTS LEGEND
  
 Use, reproduction and disclosure by the US Government is
 subject to restrictions as set forth in subparagraphs (a)
 and (c) of the Commercial Computer Software - Restricted
 Rights clause in FAR 52.227-19.
  
 Gaussian, Inc.
 340 Quinnipiac St., Bldg. 40, Wallingford CT 06492
  
  
 ---------------------------------------------------------------
 Warning -- This program may not be used in any manner that
 competes with the business of Gaussian, Inc. or will provide
 assistance to any competitor of Gaussian, Inc.  The licensee
 of this program is prohibited from giving any competitor of
 Gaussian, Inc. access to this program.  By using this program,
 the user acknowledges that Gaussian, Inc. is engaged in the
 business of creating and licensing software in the field of
 computational chemistry and represents and warrants to the
 licensee that it is not a competitor of Gaussian, Inc. and that
 it will not use this program in any manner prohibited above.
 ---------------------------------------------------------------
  

 Cite this work as:
 Gaussian 09, Revision D.01,
 M. J. Frisch, G. W. Trucks, H. B. Schlegel, G. E. Scuseria, 
 M. A. Robb, J. R. Cheeseman, G. Scalmani, V. Barone, B. Mennucci, 
 G. A. Petersson, H. Nakatsuji, M. Caricato, X. Li, H. P. Hratchian, 
 A. F. Izmaylov, J. Bloino, G. Zheng, J. L. Sonnenberg, M. Hada, 
 M. Ehara, K. Toyota, R. Fukuda, J. Hasegawa, M. Ishida, T. Nakajima, 
 Y. Honda, O. Kitao, H. Nakai, T. Vreven, J. A. Montgomery, Jr., 
 J. E. Peralta, F. Ogliaro, M. Bearpark, J. J. Heyd, E. Brothers, 
 K. N. Kudin, V. N. Staroverov, T. Keith, R. Kobayashi, J. Normand, 
 K. Raghavachari, A. Rendell, J. C. Burant, S. S. Iyengar, J. Tomasi, 
 M. Cossi, N. Rega, J. M. Millam, M. Klene, J. E. Knox, J. B. Cross, 
 V. Bakken, C. Adamo, J. Jaramillo, R. Gomperts, R. E. Stratmann, 
 O. Yazyev, A. J. Austin, R. Cammi, C. Pomelli, J. W. Ochterski, 
 R. L. Martin, K. Morokuma, V. G. Zakrzewski, G. A. Voth, 
 P. Salvador, J. J. Dannenberg, S. Dapprich, A. D. Daniels, 
 O. Farkas, J. B. Foresman, J. V. Ortiz, J. Cioslowski, 
 and D. J. Fox, Gaussian, Inc., Wallingford CT, 2013.
 
 ******************************************
 Gaussian 09:  EM64L-G09RevD.01 24-Apr-2013
                27-May-2019 
 ******************************************
 %Chk=OPT_ES
 %nprocshared=1
 Will use up to    1 processors via shared memory.
 %mem=1000MB
 ------------------------------------------------------------------
 #P OPT TD(nstates=5,root=1) B3LYP 6-31G* Direct gfprint pop=(full)
 ------------------------------------------------------------------
 1/14=-1,18=20,19=15,26=3,38=1/1,3;
 2/9=110,12=2,17=6,18=5,40=1/2;
 3/5=1,6=6,7=1,11=9,16=1,24=100,25=1,30=1,71=1,74=-5/1,2,8,3;
 4//1;
 5/5=2,38=5/2;
 8/6=1,10=2,107=1,108=5/1;
 9/8=1,15=2,41=5,42=1,70=2/14;
 10/5=4/2;
 6/7=3/1;
 7/12=6,13=5,14=1/1,2,3,16;
 1/14=-1,18=20,19=15,26=3/3(2);
 2/9=110/2;
 99//99;
 2/9=110/2;
 3/5=1,6=6,7=1,11=9,16=1,25=1,30=1,71=1,74=-5/1,2,8,3;
 4/5=5,16=3,69=1/1;
 5/5=2,38=5/2;
 8/6=1,10=2,107=1,108=5/1;
 9/8=1,15=2,41=5,42=1,49=4,70=2/14;
 10/5=4/2;
 7/12=6,13=5,14=1/1,2,3,16;
 1/14=-1,18=20,19=15,26=3/3(-8);
 2/9=110/2;
 6/7=3/1;
 99//99;
 Leave Link    1 at Mon May 27 17:21:06 2019, MaxMem=   131072000 cpu:         0.0
 (Enter /applis/g09/l101.exe)
 --------------------
 OPT H20 B3LYP 6-31G*
 --------------------
 Symbolic Z-matrix:
 Charge =  0 Multiplicity = 1
 O                     0.        0.       -0.111 
 H                     0.        0.75941  -0.6945 
 H                     0.       -0.75941  -0.6945 
 
 NAtoms=      3 NQM=        3 NQMF=       0 NMMI=      0 NMMIF=      0
                NMic=       0 NMicF=      0.
                    Isotopes and Nuclear Properties:
 (Nuclear quadrupole moments (NQMom) in fm**2, nuclear magnetic moments (NMagM)
  in nuclear magnetons)

  Atom         1           2           3
 IAtWgt=          16           1           1
 AtmWgt=  15.9949146   1.0078250   1.0078250
 NucSpn=           0           1           1
 AtZEff=   0.0000000   0.0000000   0.0000000
 NQMom=    0.0000000   0.0000000   0.0000000
 NMagM=    0.0000000   2.7928460   2.7928460
 AtZNuc=   8.0000000   1.0000000   1.0000000
 Leave Link  101 at Mon May 27 17:21:06 2019, MaxMem=   131072000 cpu:         0.1
 (Enter /applis/g09/l103.exe)

 GradGradGradGradGradGradGradGradGradGradGradGradGradGradGradGradGradGrad
 Berny optimization.
 Initialization pass.
                           ----------------------------
                           !    Initial Parameters    !
                           ! (Angstroms and Degrees)  !
 --------------------------                            --------------------------
 ! Name  Definition              Value          Derivative Info.                !
 --------------------------------------------------------------------------------
 ! R1    R(1,2)                  0.9577         estimate D2E/DX2                !
 ! R2    R(1,3)                  0.9577         estimate D2E/DX2                !
 ! A1    A(2,1,3)              104.9259         estimate D2E/DX2                !
 --------------------------------------------------------------------------------
 Trust Radius=3.00D-01 FncErr=1.00D-07 GrdErr=1.00D-06
 Number of steps in this run=     20 maximum allowed number of steps=    100.
 GradGradGradGradGradGradGradGradGradGradGradGradGradGradGradGradGradGrad

 Leave Link  103 at Mon May 27 17:21:06 2019, MaxMem=   131072000 cpu:         0.0
 (Enter /applis/g09/l202.exe)
                          Input orientation:                          
 ---------------------------------------------------------------------
 Center     Atomic      Atomic             Coordinates (Angstroms)
 Number     Number       Type             X           Y           Z
 ---------------------------------------------------------------------
      1          8           0        0.000000    0.000000   -0.111004
      2          1           0        0.000000    0.759407   -0.694498
      3          1           0        0.000000   -0.759407   -0.694498
 ---------------------------------------------------------------------
                    Distance matrix (angstroms):
                    1          2          3
     1  O    0.000000
     2  H    0.957687   0.000000
     3  H    0.957687   1.518814   0.000000
 Stoichiometry    H2O
 Framework group  C2V[C2(O),SGV(H2)]
 Deg. of freedom     2
 Full point group                 C2V     NOp   4
 Largest Abelian subgroup         C2V     NOp   4
 Largest concise Abelian subgroup C2      NOp   2
                         Standard orientation:                         
 ---------------------------------------------------------------------
 Center     Atomic      Atomic             Coordinates (Angstroms)
 Number     Number       Type             X           Y           Z
 ---------------------------------------------------------------------
      1          8           0        0.000000    0.000000    0.116699
      2          1           0        0.000000    0.759407   -0.466795
      3          1           0        0.000000   -0.759407   -0.466795
 ---------------------------------------------------------------------
 Rotational constants (GHZ):    829.2293618    434.7632886    285.2219783
 Leave Link  202 at Mon May 27 17:21:06 2019, MaxMem=   131072000 cpu:         0.0
 (Enter /applis/g09/l301.exe)
 Standard basis: 6-31G(d) (6D, 7F)
 Ernie: Thresh=  0.10000D-02 Tol=  0.10000D-05 Strict=F.
 AO basis set (Overlap normalization):
 Atom O1       Shell     1 S   6     bf    1 -     1          0.000000000000          0.000000000000          0.220528772036
      0.5484671660D+04  0.1831074430D-02
      0.8252349460D+03  0.1395017220D-01
      0.1880469580D+03  0.6844507810D-01
      0.5296450000D+02  0.2327143360D+00
      0.1689757040D+02  0.4701928980D+00
      0.5799635340D+01  0.3585208530D+00
 Atom O1       Shell     2 SP   3    bf    2 -     5          0.000000000000          0.000000000000          0.220528772036
      0.1553961625D+02 -0.1107775495D+00  0.7087426823D-01
      0.3599933586D+01 -0.1480262627D+00  0.3397528391D+00
      0.1013761750D+01  0.1130767015D+01  0.7271585773D+00
 Atom O1       Shell     3 SP   1    bf    6 -     9          0.000000000000          0.000000000000          0.220528772036
      0.2700058226D+00  0.1000000000D+01  0.1000000000D+01
 Atom O1       Shell     4 D   1     bf   10 -    15          0.000000000000          0.000000000000          0.220528772036
      0.8000000000D+00  0.1000000000D+01
 Atom H2       Shell     5 S   3     bf   16 -    16          0.000000000000          1.435071253396         -0.882115088146
      0.1873113696D+02  0.3349460434D-01
      0.2825394365D+01  0.2347269535D+00
      0.6401216923D+00  0.8137573261D+00
 Atom H2       Shell     6 S   1     bf   17 -    17          0.000000000000          1.435071253396         -0.882115088146
      0.1612777588D+00  0.1000000000D+01
 Atom H3       Shell     7 S   3     bf   18 -    18          0.000000000000         -1.435071253396         -0.882115088146
      0.1873113696D+02  0.3349460434D-01
      0.2825394365D+01  0.2347269535D+00
      0.6401216923D+00  0.8137573261D+00
 Atom H3       Shell     8 S   1     bf   19 -    19          0.000000000000         -1.435071253396         -0.882115088146
      0.1612777588D+00  0.1000000000D+01
 There are    10 symmetry adapted cartesian basis functions of A1  symmetry.
 There are     1 symmetry adapted cartesian basis functions of A2  symmetry.
 There are     3 symmetry adapted cartesian basis functions of B1  symmetry.
 There are     5 symmetry adapted cartesian basis functions of B2  symmetry.
 There are    10 symmetry adapted basis functions of A1  symmetry.
 There are     1 symmetry adapted basis functions of A2  symmetry.
 There are     3 symmetry adapted basis functions of B1  symmetry.
 There are     5 symmetry adapted basis functions of B2  symmetry.
    19 basis functions,    36 primitive gaussians,    19 cartesian basis functions
     5 alpha electrons        5 beta electrons
       nuclear repulsion energy         9.1893367177 Hartrees.
 IExCor=  402 DFT=T Ex+Corr=B3LYP ExCW=0 ScaHFX=  0.200000
 ScaDFX=  0.800000  0.720000  1.000000  0.810000 ScalE2=  1.000000  1.000000
 IRadAn=      0 IRanWt=     -1 IRanGd=            0 ICorTp=0 IEmpDi=  4
 NAtoms=    3 NActive=    3 NUniq=    2 SFac= 2.25D+00 NAtFMM=   60 NAOKFM=F Big=F
 Integral buffers will be    131072 words long.
 Regular integral format.
 Two-electron integral symmetry is turned on.
 Leave Link  301 at Mon May 27 17:21:06 2019, MaxMem=   131072000 cpu:         0.0
 (Enter /applis/g09/l302.exe)
 NPDir=0 NMtPBC=     1 NCelOv=     1 NCel=       1 NClECP=     1 NCelD=      1
         NCelK=      1 NCelE2=     1 NClLst=     1 CellRange=     0.0.
 One-electron integrals computed using PRISM.
 One-electron integral symmetry used in STVInt
 NBasis=    19 RedAO= T EigKep=  4.15D-02  NBF=    10     1     3     5
 NBsUse=    19 1.00D-06 EigRej= -1.00D+00 NBFU=    10     1     3     5
 Precomputing XC quadrature grid using
 IXCGrd= 4 IRadAn=           0 IRanWt=          -1 IRanGd=           0 AccXCQ= 0.00D+00.
 Generated NRdTot=       0 NPtTot=           0 NUsed=           0 NTot=          32
 NSgBfM=    19    19    19    19    19 MxSgAt=     3 MxSgA2=     3.
 Leave Link  302 at Mon May 27 17:21:06 2019, MaxMem=   131072000 cpu:         0.1
 (Enter /applis/g09/l308.exe)
 Leave Link  308 at Mon May 27 17:21:06 2019, MaxMem=   131072000 cpu:         0.0
 (Enter /applis/g09/l303.exe)
 DipDrv:  MaxL=1.
 Leave Link  303 at Mon May 27 17:21:06 2019, MaxMem=   131072000 cpu:         0.0
 (Enter /applis/g09/l401.exe)
 ExpMin= 1.61D-01 ExpMax= 5.48D+03 ExpMxC= 8.25D+02 IAcc=1 IRadAn=         1 AccDes= 0.00D+00
 Harris functional with IExCor=  402 and IRadAn=       1 diagonalized for initial guess.
 HarFok:  IExCor=  402 AccDes= 0.00D+00 IRadAn=         1 IDoV= 1 UseB2=F ITyADJ=14
 ICtDFT=  3500011 ScaDFX=  1.000000  1.000000  1.000000  1.000000
 FoFCou: FMM=F IPFlag=           0 FMFlag=      100000 FMFlg1=           0
         NFxFlg=           0 DoJE=T BraDBF=F KetDBF=T FulRan=T
         wScrn=  0.000000 ICntrl=     500 IOpCl=  0 I1Cent=   200000004 NGrid=           0
         NMat0=    1 NMatS0=      1 NMatT0=    0 NMatD0=    1 NMtDS0=    0 NMtDT0=    0
 Petite list used in FoFCou.
 Harris En= -76.4481825262935    
 JPrj=0 DoOrth=F DoCkMO=F.
 Initial guess orbital symmetries:
       Occupied  (A1) (A1) (B2) (A1) (B1)
       Virtual   (A1) (B2) (B2) (A1) (B1) (A1) (B2) (A1) (A1) (A2)
                 (B1) (A1) (B2) (A1)
 The electronic state of the initial guess is 1-A1.
 Leave Link  401 at Mon May 27 17:21:06 2019, MaxMem=   131072000 cpu:         0.1
 (Enter /applis/g09/l502.exe)
 Closed shell SCF:
 Using DIIS extrapolation, IDIIS=  1040.
 Integral symmetry usage will be decided dynamically.
 Keep R1 ints in memory in symmetry-blocked form, NReq=898557.
 IVT=       20213 IEndB=       20213 NGot=   131072000 MDV=   131045418
 LenX=   131045418 LenY=   131044536
 Requested convergence on RMS density matrix=1.00D-08 within 128 cycles.
 Requested convergence on MAX density matrix=1.00D-06.
 Requested convergence on             energy=1.00D-06.
 No special actions if energy rises.
 FoFCou: FMM=F IPFlag=           0 FMFlag=           0 FMFlg1=           0
         NFxFlg=           0 DoJE=F BraDBF=F KetDBF=F FulRan=T
         wScrn=  0.000000 ICntrl=     600 IOpCl=  0 I1Cent=           0 NGrid=           0
         NMat0=    1 NMatS0=    190 NMatT0=    0 NMatD0=    1 NMtDS0=    0 NMtDT0=    0
 Petite list used in FoFCou.
 Integral accuracy reduced to 1.0D-05 until final iterations.

 Cycle   1  Pass 0  IDiag  1:
 E= -76.3296514372666    
 DIIS: error= 8.09D-02 at cycle   1 NSaved=   1.
 NSaved= 1 IEnMin= 1 EnMin= -76.3296514372666     IErMin= 1 ErrMin= 8.09D-02
 ErrMax= 8.09D-02  0.00D+00 EMaxC= 1.00D-01 BMatC= 1.07D-01 BMatP= 1.07D-01
 IDIUse=3 WtCom= 1.91D-01 WtEn= 8.09D-01
 Coeff-Com:  0.100D+01
 Coeff-En:   0.100D+01
 Coeff:      0.100D+01
 Gap=     0.212 Goal=   None    Shift=    0.000
 GapD=    0.212 DampG=1.000 DampE=0.500 DampFc=0.5000 IDamp=-1.
 Damping current iteration by 5.00D-01
 RMSDP=2.99D-02 MaxDP=2.29D-01              OVMax= 2.01D-01

 Cycle   2  Pass 0  IDiag  1:
 E= -76.3571055334615     Delta-E=       -0.027454096195 Rises=F Damp=T
 DIIS: error= 1.88D-02 at cycle   2 NSaved=   2.
 NSaved= 2 IEnMin= 2 EnMin= -76.3571055334615     IErMin= 2 ErrMin= 1.88D-02
 ErrMax= 1.88D-02  0.00D+00 EMaxC= 1.00D-01 BMatC= 6.24D-03 BMatP= 1.07D-01
 IDIUse=3 WtCom= 8.12D-01 WtEn= 1.88D-01
 Coeff-Com:  0.180D+00 0.820D+00
 Coeff-En:   0.294D+00 0.706D+00
 Coeff:      0.201D+00 0.799D+00
 Gap=     0.344 Goal=   None    Shift=    0.000
 RMSDP=3.58D-03 MaxDP=3.84D-02 DE=-2.75D-02 OVMax= 1.12D-01

 Cycle   3  Pass 0  IDiag  1:
 E= -76.4085756518408     Delta-E=       -0.051470118379 Rises=F Damp=F
 DIIS: error= 3.20D-03 at cycle   3 NSaved=   3.
 NSaved= 3 IEnMin= 3 EnMin= -76.4085756518408     IErMin= 3 ErrMin= 3.20D-03
 ErrMax= 3.20D-03  0.00D+00 EMaxC= 1.00D-01 BMatC= 1.97D-04 BMatP= 6.24D-03
 IDIUse=3 WtCom= 9.68D-01 WtEn= 3.20D-02
 Coeff-Com:  0.375D-01-0.114D-01 0.974D+00
 Coeff-En:   0.000D+00 0.000D+00 0.100D+01
 Coeff:      0.363D-01-0.110D-01 0.975D+00
 Gap=     0.357 Goal=   None    Shift=    0.000
 RMSDP=4.75D-04 MaxDP=4.04D-03 DE=-5.15D-02 OVMax= 3.24D-03

 Cycle   4  Pass 0  IDiag  1:
 E= -76.4087089439652     Delta-E=       -0.000133292124 Rises=F Damp=F
 DIIS: error= 3.67D-04 at cycle   4 NSaved=   4.
 NSaved= 4 IEnMin= 4 EnMin= -76.4087089439652     IErMin= 4 ErrMin= 3.67D-04
 ErrMax= 3.67D-04  0.00D+00 EMaxC= 1.00D-01 BMatC= 2.06D-06 BMatP= 1.97D-04
 IDIUse=3 WtCom= 9.96D-01 WtEn= 3.67D-03
 Coeff-Com:  0.609D-02-0.174D-01 0.216D+00 0.795D+00
 Coeff-En:   0.000D+00 0.000D+00 0.000D+00 0.100D+01
 Coeff:      0.607D-02-0.174D-01 0.216D+00 0.796D+00
 Gap=     0.357 Goal=   None    Shift=    0.000
 RMSDP=3.84D-05 MaxDP=1.74D-04 DE=-1.33D-04 OVMax= 2.81D-04

 Cycle   5  Pass 0  IDiag  1:
 E= -76.4087104206209     Delta-E=       -0.000001476656 Rises=F Damp=F
 DIIS: error= 5.29D-05 at cycle   5 NSaved=   5.
 NSaved= 5 IEnMin= 5 EnMin= -76.4087104206209     IErMin= 5 ErrMin= 5.29D-05
 ErrMax= 5.29D-05  0.00D+00 EMaxC= 1.00D-01 BMatC= 3.95D-08 BMatP= 2.06D-06
 IDIUse=1 WtCom= 1.00D+00 WtEn= 0.00D+00
 Coeff-Com:  0.508D-03-0.312D-03-0.635D-03-0.598D-02 0.101D+01
 Coeff:      0.508D-03-0.312D-03-0.635D-03-0.598D-02 0.101D+01
 Gap=     0.357 Goal=   None    Shift=    0.000
 RMSDP=7.87D-06 MaxDP=7.09D-05 DE=-1.48D-06 OVMax= 4.30D-05

 Initial convergence to 1.0D-05 achieved.  Increase integral accuracy.
 Cycle   6  Pass 1  IDiag  1:
 E= -76.4087111724388     Delta-E=       -0.000000751818 Rises=F Damp=F
 DIIS: error= 1.96D-06 at cycle   1 NSaved=   1.
 NSaved= 1 IEnMin= 1 EnMin= -76.4087111724388     IErMin= 1 ErrMin= 1.96D-06
 ErrMax= 1.96D-06  0.00D+00 EMaxC= 1.00D-01 BMatC= 5.75D-11 BMatP= 5.75D-11
 IDIUse=1 WtCom= 1.00D+00 WtEn= 0.00D+00
 Coeff-Com:  0.100D+01
 Coeff:      0.100D+01
 Gap=     0.357 Goal=   None    Shift=    0.000
 RMSDP=7.87D-06 MaxDP=7.09D-05 DE=-7.52D-07 OVMax= 3.36D-06

 Cycle   7  Pass 1  IDiag  1:
 E= -76.4087111724888     Delta-E=       -0.000000000050 Rises=F Damp=F
 DIIS: error= 6.55D-07 at cycle   2 NSaved=   2.
 NSaved= 2 IEnMin= 2 EnMin= -76.4087111724888     IErMin= 2 ErrMin= 6.55D-07
 ErrMax= 6.55D-07  0.00D+00 EMaxC= 1.00D-01 BMatC= 1.04D-11 BMatP= 5.75D-11
 IDIUse=1 WtCom= 1.00D+00 WtEn= 0.00D+00
 Coeff-Com:  0.200D+00 0.800D+00
 Coeff:      0.200D+00 0.800D+00
 Gap=     0.357 Goal=   None    Shift=    0.000
 RMSDP=1.99D-07 MaxDP=1.59D-06 DE=-5.00D-11 OVMax= 1.49D-06

 Cycle   8  Pass 1  IDiag  1:
 E= -76.4087111724910     Delta-E=       -0.000000000002 Rises=F Damp=F
 DIIS: error= 7.06D-07 at cycle   3 NSaved=   3.
 NSaved= 3 IEnMin= 3 EnMin= -76.4087111724910     IErMin= 2 ErrMin= 6.55D-07
 ErrMax= 7.06D-07  0.00D+00 EMaxC= 1.00D-01 BMatC= 7.44D-12 BMatP= 1.04D-11
 IDIUse=1 WtCom= 1.00D+00 WtEn= 0.00D+00
 Coeff-Com:  0.294D-02 0.456D+00 0.541D+00
 Coeff:      0.294D-02 0.456D+00 0.541D+00
 Gap=     0.357 Goal=   None    Shift=    0.000
 RMSDP=9.87D-08 MaxDP=6.99D-07 DE=-2.23D-12 OVMax= 6.77D-07

 Cycle   9  Pass 1  IDiag  1:
 E= -76.4087111724961     Delta-E=       -0.000000000005 Rises=F Damp=F
 DIIS: error= 5.78D-08 at cycle   4 NSaved=   4.
 NSaved= 4 IEnMin= 4 EnMin= -76.4087111724961     IErMin= 4 ErrMin= 5.78D-08
 ErrMax= 5.78D-08  0.00D+00 EMaxC= 1.00D-01 BMatC= 6.91D-14 BMatP= 7.44D-12
 IDIUse=1 WtCom= 1.00D+00 WtEn= 0.00D+00
 Coeff-Com: -0.817D-02 0.919D-01 0.160D+00 0.757D+00
 Coeff:     -0.817D-02 0.919D-01 0.160D+00 0.757D+00
 Gap=     0.357 Goal=   None    Shift=    0.000
 RMSDP=7.42D-09 MaxDP=5.03D-08 DE=-5.13D-12 OVMax= 5.27D-08

 SCF Done:  E(RB3LYP) =  -76.4087111725     A.U. after    9 cycles
            NFock=  9  Conv=0.74D-08     -V/T= 2.0073
 KE= 7.585545743134D+01 PE=-1.989767808042D+02 EE= 3.752327548269D+01
 Leave Link  502 at Mon May 27 17:21:06 2019, MaxMem=   131072000 cpu:         0.2
 (Enter /applis/g09/l801.exe)
 DoSCS=F DFT=T ScalE2(SS,OS)=  1.000000  1.000000
 ExpMin= 1.61D-01 ExpMax= 5.48D+03 ExpMxC= 8.25D+02 IAcc=3 IRadAn=         5 AccDes= 0.00D+00
 HarFok:  IExCor=  205 AccDes= 0.00D+00 IRadAn=         5 IDoV=-2 UseB2=F ITyADJ=14
 ICtDFT= 12500011 ScaDFX=  1.000000  1.000000  1.000000  1.000000
 Largest valence mixing into a core orbital is  2.69D-05
 Largest core mixing into a valence orbital is  5.91D-06
 Range of M.O.s used for correlation:     2    19
 NBasis=    19 NAE=     5 NBE=     5 NFC=     1 NFV=     0
 NROrb=     18 NOA=     4 NOB=     4 NVA=    14 NVB=    14
 Leave Link  801 at Mon May 27 17:21:07 2019, MaxMem=   131072000 cpu:         0.1
 (Enter /applis/g09/l914.exe)
 RHF ground state
 MDV=   131072000 DFT=T DoStab=F Mixed=T DoRPA=T DoScal=F NonHer=T
 Keep R1, R2, and R3 ints in memory in symmetry-blocked form, NReq=1006849.
 FoFCou: FMM=F IPFlag=           0 FMFlag=           0 FMFlg1=           0
         NFxFlg=           0 DoJE=F BraDBF=F KetDBF=F FulRan=T
         wScrn=  0.000000 ICntrl=     600 IOpCl=  0 I1Cent=           0 NGrid=           0
         NMat0=    1 NMatS0=    190 NMatT0=    0 NMatD0=    1 NMtDS0=    0 NMtDT0=    0
 Petite list used in FoFCou.
 Making orbital integer symmetry assigments:
 Orbital symmetries:
       Occupied  (A1) (A1) (B2) (A1) (B1)
       Virtual   (A1) (B2) (B2) (A1) (B1) (A1) (B2) (A1) (A1) (A2)
                 (B1) (A1) (B2) (A1)
    20 initial guesses have been made.
 Convergence on wavefunction:    0.000001000000000
 Davidson Disk Diagonalization:  ConvIn= 1.00D-06 SkipCon=T Conv= 1.00D-06.
 Max sub-space:   200 roots to seek:    20 dimension of matrix:          112
 Iteration     1 Dimension    20 NMult     0 NNew     20
 CISAX will form    20 AO SS matrices at one time.
 NMat=    20 NSing=    20 JSym2X=-1.
 New state      2 was old state      3
 New state      3 was old state      2
 Excitation Energies [eV] at current iteration:
 Root      1 :     8.063916004203699
 Root      2 :    10.080554817134750
 Root      3 :    10.559123328665830
 Root      4 :    12.827328516172360
 Root      5 :    14.808979523724860
 Root      6 :    18.144782776634180
 Root      7 :    26.830535237119470
 Root      8 :    27.952148862258410
 Root      9 :    28.958903417709880
 Root     10 :    29.731447322319560
 Root     11 :    30.452348032311130
 Root     12 :    30.662773421141360
 Root     13 :    31.003370548943240
 Root     14 :    31.694872155695280
 Root     15 :    32.181362970658940
 Root     16 :    34.051536668130870
 Root     17 :    35.435542466828600
 Root     18 :    35.708839245947890
 Root     19 :    37.153191258512170
 Root     20 :    41.633464881076410
 Iteration     2 Dimension    30 NMult    20 NNew     10
 CISAX will form    10 AO SS matrices at one time.
 NMat=    10 NSing=    10 JSym2X=-1.
 Root      1 not converged, maximum delta is    0.011386676888933
 Root      2 not converged, maximum delta is    0.007057489854895
 Root      3 not converged, maximum delta is    0.019702559189722
 Root      4 not converged, maximum delta is    0.025933246263235
 Root      5 not converged, maximum delta is    0.024537949559902
 Excitation Energies [eV] at current iteration:
 Root      1 :     8.023555834199176   Change is   -0.040360170004524
 Root      2 :    10.076193392506410   Change is   -0.004361424628345
 Root      3 :    10.516197823626230   Change is   -0.042925505039602
 Root      4 :    12.732574296023850   Change is   -0.094754220148510
 Root      5 :    14.761055061614760   Change is   -0.047924462110104
 Iteration     3 Dimension    40 NMult    30 NNew     10
 CISAX will form    10 AO SS matrices at one time.
 NMat=    10 NSing=    10 JSym2X=-1.
 Root      1 not converged, maximum delta is    0.000901778162880
 Root      2 not converged, maximum delta is    0.000023665490735
 Root      3 not converged, maximum delta is    0.000770486324151
 Root      4 not converged, maximum delta is    0.000569056979745
 Root      5 not converged, maximum delta is    0.000801056193223
 Excitation Energies [eV] at current iteration:
 Root      1 :     8.023403300859359   Change is   -0.000152533339817
 Root      2 :    10.076192882299040   Change is   -0.000000510207369
 Root      3 :    10.516034671118830   Change is   -0.000163152507400
 Root      4 :    12.732371469176890   Change is   -0.000202826846955
 Root      5 :    14.760689273624320   Change is   -0.000365787990439
 Iteration     4 Dimension    47 NMult    40 NNew      7
 CISAX will form     7 AO SS matrices at one time.
 NMat=     7 NSing=     7 JSym2X=-1.
 Root      1 not converged, maximum delta is    0.000015330115465
 Root      2 has converged.
 Root      3 not converged, maximum delta is    0.000064277351709
 Root      4 not converged, maximum delta is    0.000030809821668
 Root      5 not converged, maximum delta is    0.000072559662163
 Excitation Energies [eV] at current iteration:
 Root      1 :     8.023403209278372   Change is   -0.000000091580986
 Root      2 :    10.076192882299090   Change is    0.000000000000056
 Root      3 :    10.516033037713640   Change is   -0.000001633405197
 Root      4 :    12.732370983672760   Change is   -0.000000485504133
 Root      5 :    14.760686175800450   Change is   -0.000003097823867
 Iteration     5 Dimension    51 NMult    47 NNew      4
 CISAX will form     4 AO SS matrices at one time.
 NMat=     4 NSing=     4 JSym2X=-1.
 Root      1 has converged.
 Root      2 has converged.
 Root      3 not converged, maximum delta is    0.000004631387506
 Root      4 has converged.
 Root      5 has converged.
 Excitation Energies [eV] at current iteration:
 Root      1 :     8.023403209231764   Change is   -0.000000000046609
 Root      2 :    10.076192882299050   Change is   -0.000000000000048
 Root      3 :    10.516033032579380   Change is   -0.000000005134255
 Root      4 :    12.732370983672680   Change is   -0.000000000000077
 Root      5 :    14.760686175800440   Change is   -0.000000000000012
 Iteration     6 Dimension    53 NMult    51 NNew      2
 CISAX will form     2 AO SS matrices at one time.
 NMat=     2 NSing=     2 JSym2X=-1.
 Root      1 has converged.
 Root      2 has converged.
 Root      3 has converged.
 Root      4 has converged.
 Root      5 has converged.
 Excitation Energies [eV] at current iteration:
 Root      1 :     8.023403209231292   Change is   -0.000000000000471
 Root      2 :    10.076192882299020   Change is   -0.000000000000024
 Root      3 :    10.516033032569250   Change is   -0.000000000010131
 Root      4 :    12.732370983672690   Change is    0.000000000000012
 Root      5 :    14.760686175800390   Change is   -0.000000000000048
 Convergence achieved on expansion vectors.
 ***********************************************************************
 Excited states from <AA,BB:AA,BB> singles matrix:
 ***********************************************************************
 
 1PDM for each excited state written to RWF  633
 Ground to excited state transition densities written to RWF  633
 Ground to excited state transition electric dipole moments (Au):
       state          X           Y           Z        Dip. S.      Osc.
         1         0.2702      0.0000      0.0000      0.0730      0.0143
         2         0.0000      0.0000      0.0000      0.0000      0.0000
         3         0.0000      0.0000      0.5980      0.3576      0.0921
         4         0.0000      0.4924      0.0000      0.2425      0.0756
         5         0.0000      1.0325      0.0000      1.0660      0.3855
 Ground to excited state transition velocity dipole moments (Au):
       state          X           Y           Z        Dip. S.      Osc.
         1        -0.1743      0.0000      0.0000      0.0304      0.0687
         2         0.0000      0.0000      0.0000      0.0000      0.0000
         3         0.0000      0.0000     -0.3042      0.0926      0.1597
         4         0.0000     -0.2226      0.0000      0.0496      0.0706
         5         0.0000     -0.5791      0.0000      0.3353      0.4121
 Ground to excited state transition magnetic dipole moments (Au):
       state          X           Y           Z
         1         0.0000      0.2144      0.0000
         2         0.0000      0.0000     -0.3213
         3         0.0000      0.0000      0.0000
         4         0.3740      0.0000      0.0000
         5        -0.0821      0.0000      0.0000
 Ground to excited state transition velocity quadrupole moments (Au):
       state          XX          YY          ZZ          XY          XZ          YZ
         1         0.0000      0.0000      0.0000      0.0000      0.1224      0.0000
         2         0.0000      0.0000      0.0000      0.2422      0.0000      0.0000
         3         0.0036      0.1438      0.2701      0.0000      0.0000      0.0000
         4         0.0000      0.0000      0.0000      0.0000      0.0000      0.3287
         5         0.0000      0.0000      0.0000      0.0000      0.0000      0.5151
 <0|del|b> * <b|rxdel|0> + <0|del|b> * <b|delr+rdel|0>
 Rotatory Strengths (R) in cgs (10**-40 erg-esu-cm/Gauss)
       state          XX          YY          ZZ    R(velocity)    E-M Angle
         1         0.0000      0.0000      0.0000      0.0000       90.00
         2         0.0000      0.0000      0.0000      0.0000       90.00
         3         0.0000      0.0000      0.0000      0.0000       90.00
         4         0.0000      0.0000      0.0000      0.0000       90.00
         5         0.0000      0.0000      0.0000      0.0000       90.00
 1/2[<0|r|b>*<b|rxdel|0> + (<0|rxdel|b>*<b|r|0>)*]
 Rotatory Strengths (R) in cgs (10**-40 erg-esu-cm/Gauss)
       state          XX          YY          ZZ     R(length)
         1         0.0000      0.0000      0.0000      0.0000
         2         0.0000      0.0000      0.0000      0.0000
         3         0.0000      0.0000      0.0000      0.0000
         4         0.0000      0.0000      0.0000      0.0000
         5         0.0000      0.0000      0.0000      0.0000
  1/2[<0|del|b>*<b|r|0> + (<0|r|b>*<b|del|0>)*] (Au)
       state          X           Y           Z        Dip. S.   Osc.(frdel)
         1        -0.0471      0.0000      0.0000      0.0471      0.0314
         2         0.0000      0.0000      0.0000      0.0000      0.0000
         3         0.0000      0.0000     -0.1819      0.1819      0.1213
         4         0.0000     -0.1096      0.0000      0.1096      0.0731
         5         0.0000     -0.5979      0.0000      0.5979      0.3986

 Excitation energies and oscillator strengths:
 
 Excited State   1:      Singlet-B1     8.0234 eV  154.53 nm  f=0.0143  <S**2>=0.000
       5 ->  6         0.70715
 This state for optimization and/or second-order correction.
 Total Energy, E(TD-HF/TD-KS) =  -76.1138565172    
 Copying the excited state density for this state as the 1-particle RhoCI density.
 
 Excited State   2:      Singlet-A2    10.0762 eV  123.05 nm  f=0.0000  <S**2>=0.000
       5 ->  7         0.70672
 
 Excited State   3:      Singlet-A1    10.5160 eV  117.90 nm  f=0.0921  <S**2>=0.000
       4 ->  6         0.70243
 
 Excited State   4:      Singlet-B2    12.7324 eV   97.38 nm  f=0.0756  <S**2>=0.000
       3 ->  6        -0.12041
       4 ->  7         0.69616
 
 Excited State   5:      Singlet-B2    14.7607 eV   84.00 nm  f=0.3855  <S**2>=0.000
       3 ->  6         0.69647
       4 ->  7         0.11994
 SavETr:  write IOETrn=   770 NScale= 10 NData=  16 NLR=1 NState=    5 LETran=     100.
 The selected state is a singlet
 CISAX will form     1 AO SS matrices at one time.
 NMat=     1 NSing=     1 JSym2X=-1.
 CISAX will form     1 AO SS matrices at one time.
 NMat=     1 NSing=     1 JSym2X=-1.
 Leave Link  914 at Mon May 27 17:21:07 2019, MaxMem=   131072000 cpu:         0.9
 (Enter /applis/g09/l1002.exe)
 Minotr:  Closed shell wavefunction.
          Computing CIS/TD-HF/TD-KS derivatives.
          Using Z-Vector for PSCF gradient.
          Skipping F1 and S1 gradient terms here.
          IDoAtm=111
          Frozen-core window.
          Direct CPHF calculation.
          Differentiating once with respect to electric field.
                with respect to dipole field.
          Differentiating once with respect to nuclear coordinates.
          Requested convergence is 1.0D-10 RMS, and 1.0D-09 maximum.
          NewPWx=F KeepS1=T KeepF1=T KeepIn=T MapXYZ=F SortEE=F KeepMc=T.
          MDV=     131071948 using IRadAn=       0.
 Using stored XC quadrature information.
 Keep R1 ints in memory in symmetry-blocked form, NReq=878964.
 FoFCou: FMM=F IPFlag=           0 FMFlag=           0 FMFlg1=           0
         NFxFlg=           0 DoJE=F BraDBF=F KetDBF=F FulRan=T
         wScrn=  0.000000 ICntrl=     600 IOpCl=  0 I1Cent=           0 NGrid=           0
         NMat0=    1 NMatS0=    190 NMatT0=    0 NMatD0=    1 NMtDS0=    0 NMtDT0=    0
 Petite list used in FoFCou.
          Solving linear equations separately, MaxMat=       0.
          There are     1 degrees of freedom in the 1st order CPHF.  IDoFFX=0 NUNeed=     1.
 LinEq1:  Iter=  0 NonCon=     1 RMS=1.27D-01 Max=6.37D-01 NDo=     1
 AX will form     1 AO Fock derivatives at one time.
 LinEq1:  Iter=  1 NonCon=     1 RMS=2.03D-02 Max=1.08D-01 NDo=     1
 LinEq1:  Iter=  2 NonCon=     1 RMS=3.16D-03 Max=1.33D-02 NDo=     1
 LinEq1:  Iter=  3 NonCon=     1 RMS=4.50D-04 Max=2.32D-03 NDo=     1
 LinEq1:  Iter=  4 NonCon=     1 RMS=2.54D-05 Max=1.01D-04 NDo=     1
 LinEq1:  Iter=  5 NonCon=     1 RMS=1.60D-06 Max=7.16D-06 NDo=     1
 LinEq1:  Iter=  6 NonCon=     1 RMS=5.48D-08 Max=2.20D-07 NDo=     1
 LinEq1:  Iter=  7 NonCon=     1 RMS=1.54D-09 Max=6.05D-09 NDo=     1
 LinEq1:  Iter=  8 NonCon=     0 RMS=5.90D-11 Max=1.78D-10 NDo=     1
 Linear equations converged to 1.000D-10 1.000D-09 after     8 iterations.
 End of Minotr F.D. properties file   721 does not exist.
 End of Minotr F.D. properties file   722 does not exist.
 End of Minotr F.D. properties file   788 does not exist.
 Leave Link 1002 at Mon May 27 17:21:08 2019, MaxMem=   131072000 cpu:         0.4
 (Enter /applis/g09/l601.exe)
 Copying SCF densities to generalized density rwf, IOpCl= 0 IROHF=0.

 **********************************************************************

            Population analysis using the SCF density.

 **********************************************************************

 Orbital symmetries:
       Occupied  (A1) (A1) (B2) (A1) (B1)
       Virtual   (A1) (B2) (B2) (A1) (B1) (A1) (B2) (A1) (A1) (A2)
                 (B1) (A1) (B2) (A1)
 The electronic state is 1-A1.
 Alpha  occ. eigenvalues --  -19.13559  -1.00155  -0.52349  -0.37034  -0.29156
 Alpha virt. eigenvalues --    0.06582   0.15236   0.78235   0.86826   0.89102
 Alpha virt. eigenvalues --    0.89516   1.06962   1.19070   1.73045   1.74293
 Alpha virt. eigenvalues --    1.77963   2.29436   2.59801   3.55986
     Molecular Orbital Coefficients:
                           1         2         3         4         5
                        (A1)--O   (A1)--O   (B2)--O   (A1)--O   (B1)--O
     Eigenvalues --   -19.13559  -1.00155  -0.52349  -0.37034  -0.29156
   1 1   O  1S          0.99285  -0.20936   0.00000  -0.08746   0.00000
   2        2S          0.02623   0.46910   0.00000   0.17588   0.00000
   3        2PX         0.00000   0.00000   0.00000   0.00000   0.64418
   4        2PY         0.00000   0.00000   0.51842   0.00000   0.00000
   5        2PZ        -0.00110  -0.12858   0.00000   0.55472   0.00000
   6        3S          0.01022   0.43521   0.00000   0.40861   0.00000
   7        3PX         0.00000   0.00000   0.00000   0.00000   0.50647
   8        3PY         0.00000   0.00000   0.26681   0.00000   0.00000
   9        3PZ        -0.00001  -0.05936   0.00000   0.37563   0.00000
  10        4XX        -0.00775  -0.01065   0.00000   0.00000   0.00000
  11        4YY        -0.00779   0.01947   0.00000   0.00154   0.00000
  12        4ZZ        -0.00777   0.01581   0.00000  -0.05253   0.00000
  13        4XY         0.00000   0.00000   0.00000   0.00000   0.00000
  14        4XZ         0.00000   0.00000   0.00000   0.00000  -0.03569
  15        4YZ         0.00000   0.00000  -0.04108   0.00000   0.00000
  16 2   H  1S          0.00037   0.14127   0.23900  -0.14152   0.00000
  17        2S         -0.00106   0.00622   0.13825  -0.11077   0.00000
  18 3   H  1S          0.00037   0.14127  -0.23900  -0.14152   0.00000
  19        2S         -0.00106   0.00622  -0.13825  -0.11077   0.00000
                           6         7         8         9        10
                        (A1)--V   (B2)--V   (B2)--V   (A1)--V   (B1)--V
     Eigenvalues --     0.06582   0.15236   0.78235   0.86826   0.89102
   1 1   O  1S         -0.10171   0.00000   0.00000   0.03844   0.00000
   2        2S          0.11914   0.00000   0.00000  -0.08282   0.00000
   3        2PX         0.00000   0.00000   0.00000   0.00000  -0.95970
   4        2PY         0.00000  -0.40933  -0.17026   0.00000   0.00000
   5        2PZ        -0.27321   0.00000   0.00000   0.73706   0.00000
   6        3S          1.28553   0.00000   0.00000   0.01783   0.00000
   7        3PX         0.00000   0.00000   0.00000   0.00000   1.03843
   8        3PY         0.00000  -0.76758  -0.47666   0.00000   0.00000
   9        3PZ        -0.47140   0.00000   0.00000  -0.41711   0.00000
  10        4XX        -0.05913   0.00000   0.00000  -0.10081   0.00000
  11        4YY        -0.04575   0.00000   0.00000   0.17274   0.00000
  12        4ZZ        -0.02882   0.00000   0.00000   0.02364   0.00000
  13        4XY         0.00000   0.00000   0.00000   0.00000   0.00000
  14        4XZ         0.00000   0.00000   0.00000   0.00000  -0.01607
  15        4YZ         0.00000   0.01928  -0.19806   0.00000   0.00000
  16 2   H  1S         -0.09403   0.10172   0.84259   0.68723   0.00000
  17        2S         -0.98151   1.30026  -0.61565  -0.51516   0.00000
  18 3   H  1S         -0.09403  -0.10172  -0.84259   0.68723   0.00000
  19        2S         -0.98151  -1.30026   0.61565  -0.51516   0.00000
                          11        12        13        14        15
                        (A1)--V   (B2)--V   (A1)--V   (A1)--V   (A2)--V
     Eigenvalues --     0.89516   1.06962   1.19070   1.73045   1.74293
   1 1   O  1S          0.01466   0.00000  -0.08165   0.00778   0.00000
   2        2S         -0.80967   0.00000  -1.48438   0.09208   0.00000
   3        2PX         0.00000   0.00000   0.00000   0.00000   0.00000
   4        2PY         0.00000  -0.99295   0.00000   0.00000   0.00000
   5        2PZ        -0.52690   0.00000   0.39319  -0.00731   0.00000
   6        3S          1.32641   0.00000   3.66654  -0.26247   0.00000
   7        3PX         0.00000   0.00000   0.00000   0.00000   0.00000
   8        3PY         0.00000   1.64062   0.00000   0.00000   0.00000
   9        3PZ         0.83271   0.00000  -1.08303   0.14559   0.00000
  10        4XX        -0.32479   0.00000  -0.26747  -0.36794   0.00000
  11        4YY        -0.13289   0.00000  -0.65861  -0.57445   0.00000
  12        4ZZ        -0.27028   0.00000  -0.39202   1.01082   0.00000
  13        4XY         0.00000   0.00000   0.00000   0.00000   1.00000
  14        4XZ         0.00000   0.00000   0.00000   0.00000   0.00000
  15        4YZ         0.00000   0.00993   0.00000   0.00000   0.00000
  16 2   H  1S          0.51658   0.02749  -0.32839   0.08600   0.00000
  17        2S         -0.38584  -0.95227  -0.80379   0.04383   0.00000
  18 3   H  1S          0.51658  -0.02749  -0.32839   0.08600   0.00000
  19        2S         -0.38584   0.95227  -0.80379   0.04383   0.00000
                          16        17        18        19
                        (B1)--V   (A1)--V   (B2)--V   (A1)--V
     Eigenvalues --     1.77963   2.29436   2.59801   3.55986
   1 1   O  1S          0.00000  -0.05303   0.00000  -0.46924
   2        2S          0.00000  -0.50993   0.00000   0.27923
   3        2PX         0.00757   0.00000   0.00000   0.00000
   4        2PY         0.00000   0.00000   0.02641   0.00000
   5        2PZ         0.00000   0.05153   0.00000   0.11768
   6        3S          0.00000   1.56826   0.00000   3.72013
   7        3PX         0.03479   0.00000   0.00000   0.00000
   8        3PY         0.00000   0.00000  -0.88185   0.00000
   9        3PZ         0.00000  -0.74045   0.00000  -0.32987
  10        4XX         0.00000  -1.12741   0.00000  -1.57956
  11        4YY         0.00000   0.76311   0.00000  -1.53496
  12        4ZZ         0.00000   0.04237   0.00000  -1.55657
  13        4XY         0.00000   0.00000   0.00000   0.00000
  14        4XZ         0.99923   0.00000   0.00000   0.00000
  15        4YZ         0.00000   0.00000   1.28412   0.00000
  16 2   H  1S          0.00000  -0.83043   0.94917   0.12505
  17        2S          0.00000  -0.14724  -0.03522  -0.56618
  18 3   H  1S          0.00000  -0.83043  -0.94917   0.12505
  19        2S          0.00000  -0.14724   0.03522  -0.56618
     Density Matrix:
                           1         2         3         4         5
   1 1   O  1S          2.07445
   2        2S         -0.17509   0.50336
   3        2PX         0.00000   0.00000   0.82994
   4        2PY         0.00000   0.00000   0.00000   0.53753
   5        2PZ        -0.04539   0.07444   0.00000   0.00000   0.64850
   6        3S         -0.23342   0.55259   0.00000   0.00000   0.34139
   7        3PX         0.00000   0.00000   0.65251   0.00000   0.00000
   8        3PY         0.00000   0.00000   0.00000   0.27664   0.00000
   9        3PZ        -0.04087   0.07645   0.00000   0.00000   0.43201
  10        4XX        -0.01094  -0.01039   0.00000   0.00000   0.00276
  11        4YY        -0.02389   0.01840   0.00000   0.00000  -0.00328
  12        4ZZ        -0.01287  -0.00405   0.00000   0.00000  -0.06233
  13        4XY         0.00000   0.00000   0.00000   0.00000   0.00000
  14        4XZ         0.00000   0.00000  -0.04599   0.00000   0.00000
  15        4YZ         0.00000   0.00000   0.00000  -0.04260   0.00000
  16 2   H  1S         -0.03366   0.08278   0.00000   0.24781  -0.19334
  17        2S          0.01467  -0.03319   0.00000   0.14334  -0.12449
  18 3   H  1S         -0.03366   0.08278   0.00000  -0.24781  -0.19334
  19        2S          0.01467  -0.03319   0.00000  -0.14334  -0.12449
                           6         7         8         9        10
   6        3S          0.71295
   7        3PX         0.00000   0.51302
   8        3PY         0.00000   0.00000   0.14238
   9        3PZ         0.25531   0.00000   0.00000   0.28925
  10        4XX        -0.00942   0.00000   0.00000   0.00127   0.00035
  11        4YY         0.01805   0.00000   0.00000  -0.00115  -0.00029
  12        4ZZ        -0.02932   0.00000   0.00000  -0.04134  -0.00022
  13        4XY         0.00000   0.00000   0.00000   0.00000   0.00000
  14        4XZ         0.00000  -0.03616   0.00000   0.00000   0.00000
  15        4YZ         0.00000   0.00000  -0.02192   0.00000   0.00000
  16 2   H  1S          0.00732   0.00000   0.12754  -0.12309  -0.00301
  17        2S         -0.08513   0.00000   0.07377  -0.08396  -0.00012
  18 3   H  1S          0.00732   0.00000  -0.12754  -0.12309  -0.00301
  19        2S         -0.08513   0.00000  -0.07377  -0.08396  -0.00012
                          11        12        13        14        15
  11        4YY         0.00088
  12        4ZZ         0.00057   0.00614
  13        4XY         0.00000   0.00000   0.00000
  14        4XZ         0.00000   0.00000   0.00000   0.00255
  15        4YZ         0.00000   0.00000   0.00000   0.00000   0.00338
  16 2   H  1S          0.00506   0.01933   0.00000   0.00000  -0.01964
  17        2S         -0.00008   0.01185   0.00000   0.00000  -0.01136
  18 3   H  1S          0.00506   0.01933   0.00000   0.00000   0.01964
  19        2S         -0.00008   0.01185   0.00000   0.00000   0.01136
                          16        17        18        19
  16 2   H  1S          0.19422
  17        2S          0.09919   0.06285
  18 3   H  1S         -0.03428  -0.03297   0.19422
  19        2S         -0.03297  -0.01360   0.09919   0.06285
    Full Mulliken population analysis:
                           1         2         3         4         5
   1 1   O  1S          2.07445
   2        2S         -0.04092   0.50336
   3        2PX         0.00000   0.00000   0.82994
   4        2PY         0.00000   0.00000   0.00000   0.53753
   5        2PZ         0.00000   0.00000   0.00000   0.00000   0.64850
   6        3S         -0.03905   0.42198   0.00000   0.00000   0.00000
   7        3PX         0.00000   0.00000   0.32725   0.00000   0.00000
   8        3PY         0.00000   0.00000   0.00000   0.13874   0.00000
   9        3PZ         0.00000   0.00000   0.00000   0.00000   0.21666
  10        4XX        -0.00037  -0.00569   0.00000   0.00000   0.00000
  11        4YY        -0.00080   0.01007   0.00000   0.00000   0.00000
  12        4ZZ        -0.00043  -0.00222   0.00000   0.00000   0.00000
  13        4XY         0.00000   0.00000   0.00000   0.00000   0.00000
  14        4XZ         0.00000   0.00000   0.00000   0.00000   0.00000
  15        4YZ         0.00000   0.00000   0.00000   0.00000   0.00000
  16 2   H  1S         -0.00118   0.02060   0.00000   0.05652   0.03388
  17        2S          0.00101  -0.01262   0.00000   0.01680   0.01121
  18 3   H  1S         -0.00118   0.02060   0.00000   0.05652   0.03388
  19        2S          0.00101  -0.01262   0.00000   0.01680   0.01121
                           6         7         8         9        10
   6        3S          0.71295
   7        3PX         0.00000   0.51302
   8        3PY         0.00000   0.00000   0.14238
   9        3PZ         0.00000   0.00000   0.00000   0.28925
  10        4XX        -0.00659   0.00000   0.00000   0.00000   0.00035
  11        4YY         0.01262   0.00000   0.00000   0.00000  -0.00010
  12        4ZZ        -0.02050   0.00000   0.00000   0.00000  -0.00007
  13        4XY         0.00000   0.00000   0.00000   0.00000   0.00000
  14        4XZ         0.00000   0.00000   0.00000   0.00000   0.00000
  15        4YZ         0.00000   0.00000   0.00000   0.00000   0.00000
  16 2   H  1S          0.00313   0.00000   0.05905   0.04379  -0.00050
  17        2S         -0.05822   0.00000   0.02814   0.02460  -0.00005
  18 3   H  1S          0.00313   0.00000   0.05905   0.04379  -0.00050
  19        2S         -0.05822   0.00000   0.02814   0.02460  -0.00005
                          11        12        13        14        15
  11        4YY         0.00088
  12        4ZZ         0.00019   0.00614
  13        4XY         0.00000   0.00000   0.00000
  14        4XZ         0.00000   0.00000   0.00000   0.00255
  15        4YZ         0.00000   0.00000   0.00000   0.00000   0.00338
  16 2   H  1S          0.00208   0.00603   0.00000   0.00000   0.00639
  17        2S         -0.00004   0.00505   0.00000   0.00000   0.00067
  18 3   H  1S          0.00208   0.00603   0.00000   0.00000   0.00639
  19        2S         -0.00004   0.00505   0.00000   0.00000   0.00067
                          16        17        18        19
  16 2   H  1S          0.19422
  17        2S          0.06530   0.06285
  18 3   H  1S         -0.00175  -0.00736   0.19422
  19        2S         -0.00736  -0.00700   0.06530   0.06285
     Gross orbital populations:
                           1
   1 1   O  1S          1.99255
   2        2S          0.90254
   3        2PX         1.15719
   4        2PY         0.82291
   5        2PZ         0.95535
   6        3S          0.97123
   7        3PX         0.84027
   8        3PY         0.45548
   9        3PZ         0.64269
  10        4XX        -0.01356
  11        4YY         0.02695
  12        4ZZ         0.00527
  13        4XY         0.00000
  14        4XZ         0.00255
  15        4YZ         0.01751
  16 2   H  1S          0.48019
  17        2S          0.13034
  18 3   H  1S          0.48019
  19        2S          0.13034
          Condensed to atoms (all electrons):
               1          2          3
     1  O    8.286235   0.246347   0.246347
     2  H    0.246347   0.387660  -0.023470
     3  H    0.246347  -0.023470   0.387660
 Mulliken charges:
               1
     1  O   -0.778928
     2  H    0.389464
     3  H    0.389464
 Sum of Mulliken charges =   0.00000
 Mulliken charges with hydrogens summed into heavy atoms:
               1
     1  O    0.000000
 Electronic spatial extent (au):  <R**2>=             19.0333
 Charge=              0.0000 electrons
 Dipole moment (field-independent basis, Debye):
    X=              0.0000    Y=              0.0000    Z=             -2.0721  Tot=              2.0721
 Quadrupole moment (field-independent basis, Debye-Ang):
   XX=             -7.1817   YY=             -4.2450   ZZ=             -6.0172
   XY=              0.0000   XZ=              0.0000   YZ=              0.0000
 Traceless Quadrupole moment (field-independent basis, Debye-Ang):
   XX=             -1.3670   YY=              1.5696   ZZ=             -0.2026
   XY=              0.0000   XZ=              0.0000   YZ=              0.0000
 Octapole moment (field-independent basis, Debye-Ang**2):
  XXX=              0.0000  YYY=              0.0000  ZZZ=             -1.2100  XYY=              0.0000
  XXY=              0.0000  XXZ=             -0.3286  XZZ=              0.0000  YZZ=              0.0000
  YYZ=             -1.1949  XYZ=              0.0000
 Hexadecapole moment (field-independent basis, Debye-Ang**3):
 XXXX=             -5.1886 YYYY=             -5.9256 ZZZZ=             -6.1961 XXXY=              0.0000
 XXXZ=              0.0000 YYYX=              0.0000 YYYZ=              0.0000 ZZZX=              0.0000
 ZZZY=              0.0000 XXYY=             -2.0900 XXZZ=             -1.9427 YYZZ=             -1.7278
 XXYZ=              0.0000 YYXZ=              0.0000 ZZXY=              0.0000
 N-N= 9.189336717684D+00 E-N=-1.989767795300D+02  KE= 7.585545743134D+01
 Symmetry A1   KE= 6.767798078960D+01
 Symmetry A2   KE= 5.090907381524D-35
 Symmetry B1   KE= 4.596384437664D+00
 Symmetry B2   KE= 3.581092204075D+00
 Orbital energies and kinetic energies (alpha):
                                 1                 2
   1         (A1)--O         -19.135591         29.030559
   2         (A1)--O          -1.001553          2.575159
   3         (B2)--O          -0.523488          1.790546
   4         (A1)--O          -0.370343          2.233272
   5         (B1)--O          -0.291561          2.298192
   6         (A1)--V           0.065822          1.158957
   7         (B2)--V           0.152358          1.238103
   8         (B2)--V           0.782349          2.087133
   9         (A1)--V           0.868257          3.423156
  10         (B1)--V           0.891020          3.553938
  11         (A1)--V           0.895162          2.572634
  12         (B2)--V           1.069617          3.769851
  13         (A1)--V           1.190699          2.390246
  14         (A1)--V           1.730451          2.791023
  15         (A2)--V           1.742926          2.800000
  16         (B1)--V           1.779626          2.797059
  17         (A1)--V           2.294357          3.482677
  18         (B2)--V           2.598011          3.912199
  19         (A1)--V           3.559859          9.865759
 Total kinetic energy from orbitals= 7.585545743134D+01
 No NMR shielding tensors so no spin-rotation constants.
 Leave Link  601 at Mon May 27 17:21:08 2019, MaxMem=   131072000 cpu:         0.1
 (Enter /applis/g09/l701.exe)
 Compute integral first derivatives.
 ... and contract with generalized density number  6.
 Leave Link  701 at Mon May 27 17:21:08 2019, MaxMem=   131072000 cpu:         0.1
 (Enter /applis/g09/l702.exe)
 L702 exits ... SP integral derivatives will be done elsewhere.
 Leave Link  702 at Mon May 27 17:21:08 2019, MaxMem=   131072000 cpu:         0.0
 (Enter /applis/g09/l703.exe)
 Compute integral first derivatives, UseDBF=F ICtDFT=           0.
 Integral derivatives from FoFJK, PRISM(SPDF).
 Calling FoFJK, ICntrl=  10005127 FMM=F ISym2X=1 I1Cent= 0 IOpClX= 0 NMat=1 NMatS=1 NMatT=0.
 FoFJK:  IHMeth= 1 ICntrl=10005127 DoSepK=F KAlg= 0 I1Cent=   0 FoldK=F
 IRaf=         0 NMat=   1 IRICut=       1 DoRegI=T DoRafI=F ISym2E= 1.
 FoFCou: FMM=F IPFlag=           0 FMFlag=      100000 FMFlg1=         800
         NFxFlg=           0 DoJE=F BraDBF=F KetDBF=F FulRan=T
         wScrn=  0.000000 ICntrl=10005127 IOpCl=  0 I1Cent=           0 NGrid=           0
         NMat0=    1 NMatS0=      1 NMatT0=    0 NMatD0=    1 NMtDS0=    0 NMtDT0=    0
 Petite list used in FoFCou.
 Leave Link  703 at Mon May 27 17:21:08 2019, MaxMem=   131072000 cpu:         0.2
 (Enter /applis/g09/l716.exe)
 Dipole        = 5.57027777D-16-1.99840144D-15 2.06707266D-01
 ***** Axes restored to original set *****
 -------------------------------------------------------------------
 Center     Atomic                   Forces (Hartrees/Bohr)
 Number     Number              X              Y              Z
 -------------------------------------------------------------------
      1        8           0.000000000    0.000000000    0.128726585
      2        1           0.000000000    0.087002016   -0.064363293
      3        1           0.000000000   -0.087002016   -0.064363293
 -------------------------------------------------------------------
 Cartesian Forces:  Max     0.128726585 RMS     0.066662085
 Leave Link  716 at Mon May 27 17:21:08 2019, MaxMem=   131072000 cpu:         0.0
 (Enter /applis/g09/l103.exe)

 GradGradGradGradGradGradGradGradGradGradGradGradGradGradGradGradGradGrad
 Berny optimization.
 FormGI is forming the generalized inverse of G from B-inverse, IUseBI=4.
 Internal  Forces:  Max     0.108203978 RMS     0.088372169
 Search for a local minimum.
 Step number   1 out of a maximum of   20
 All quantities printed in internal units (Hartrees-Bohrs-Radians)
 RMS Force = .88372D-01 SwitMx=.10000D-02 MixMth= 1
 Mixed Optimization -- RFO/linear search
 Second derivative matrix not updated -- first step.
 The second derivative matrix:
                          R1        R2        A1
           R1           0.55974
           R2           0.00000   0.55974
           A1           0.00000   0.00000   0.16000
 ITU=  0
     Eigenvalues ---    0.16000   0.55974   0.55974
 RFO step:  Lambda=-3.91624412D-02 EMin= 1.60000000D-01
 Linear search not attempted -- first point.
 Iteration  1 RMS(Cart)=  0.13317181 RMS(Int)=  0.00094016
 Iteration  2 RMS(Cart)=  0.00098038 RMS(Int)=  0.00000054
 Iteration  3 RMS(Cart)=  0.00000048 RMS(Int)=  0.00000000
 ITry= 1 IFail=0 DXMaxC= 1.54D-01 DCOld= 1.00D+10 DXMaxT= 3.00D-01 DXLimC= 3.00D+00 Rises=F
 ClnCor:  largest displacement from symmetrization is 3.34D-14 for atom     3.
 Variable       Old X    -DE/DX   Delta X   Delta X   Delta X     New X
                                 (Linear)    (Quad)   (Total)
    R1        1.80977   0.10820   0.00000   0.18067   0.18067   1.99044
    R2        1.80977   0.10820   0.00000   0.18067   0.18067   1.99044
    A1        1.83130   0.00357   0.00000   0.01791   0.01791   1.84921
         Item               Value     Threshold  Converged?
 Maximum Force            0.108204     0.000450     NO 
 RMS     Force            0.088372     0.000300     NO 
 Maximum Displacement     0.154059     0.001800     NO 
 RMS     Displacement     0.133665     0.001200     NO 
 Predicted change in Energy=-2.086584D-02
 Lowest energy point so far.  Saving SCF results.
 GradGradGradGradGradGradGradGradGradGradGradGradGradGradGradGradGradGrad

 Leave Link  103 at Mon May 27 17:21:08 2019, MaxMem=   131072000 cpu:         0.0
 (Enter /applis/g09/l202.exe)
                          Input orientation:                          
 ---------------------------------------------------------------------
 Center     Atomic      Atomic             Coordinates (Angstroms)
 Number     Number       Type             X           Y           Z
 ---------------------------------------------------------------------
      1          8           0        0.000000    0.000000   -0.077173
      2          1           0        0.000000    0.840932   -0.711414
      3          1           0        0.000000   -0.840932   -0.711414
 ---------------------------------------------------------------------
                    Distance matrix (angstroms):
                    1          2          3
     1  O    0.000000
     2  H    1.053294   0.000000
     3  H    1.053294   1.681863   0.000000
 Stoichiometry    H2O
 Framework group  C2V[C2(O),SGV(H2)]
 Deg. of freedom     2
 Full point group                 C2V     NOp   4
 RotChk:  IX=0 Diff= 5.30D-33
 Largest Abelian subgroup         C2V     NOp   4
 Largest concise Abelian subgroup C2      NOp   2
                         Standard orientation:                         
 ---------------------------------------------------------------------
 Center     Atomic      Atomic             Coordinates (Angstroms)
 Number     Number       Type             X           Y           Z
 ---------------------------------------------------------------------
      1          8           0        0.000000    0.000000    0.126848
      2          1           0        0.000000    0.840932   -0.507393
      3          1           0        0.000000   -0.840932   -0.507393
 ---------------------------------------------------------------------
 Rotational constants (GHZ):    701.8407602    354.5526796    235.5557246
 Leave Link  202 at Mon May 27 17:21:08 2019, MaxMem=   131072000 cpu:         0.0
 (Enter /applis/g09/l301.exe)
 Standard basis: 6-31G(d) (6D, 7F)
 Ernie: Thresh=  0.10000D-02 Tol=  0.10000D-05 Strict=F.
 There are    10 symmetry adapted cartesian basis functions of A1  symmetry.
 There are     1 symmetry adapted cartesian basis functions of A2  symmetry.
 There are     3 symmetry adapted cartesian basis functions of B1  symmetry.
 There are     5 symmetry adapted cartesian basis functions of B2  symmetry.
 There are    10 symmetry adapted basis functions of A1  symmetry.
 There are     1 symmetry adapted basis functions of A2  symmetry.
 There are     3 symmetry adapted basis functions of B1  symmetry.
 There are     5 symmetry adapted basis functions of B2  symmetry.
    19 basis functions,    36 primitive gaussians,    19 cartesian basis functions
     5 alpha electrons        5 beta electrons
       nuclear repulsion energy         8.3530743615 Hartrees.
 IExCor=  402 DFT=T Ex+Corr=B3LYP ExCW=0 ScaHFX=  0.200000
 ScaDFX=  0.800000  0.720000  1.000000  0.810000 ScalE2=  1.000000  1.000000
 IRadAn=      0 IRanWt=     -1 IRanGd=            0 ICorTp=0 IEmpDi=  4
 NAtoms=    3 NActive=    3 NUniq=    2 SFac= 2.25D+00 NAtFMM=   60 NAOKFM=F Big=F
 Integral buffers will be    131072 words long.
 Regular integral format.
 Two-electron integral symmetry is turned on.
 Leave Link  301 at Mon May 27 17:21:08 2019, MaxMem=   131072000 cpu:         0.0
 (Enter /applis/g09/l302.exe)
 NPDir=0 NMtPBC=     1 NCelOv=     1 NCel=       1 NClECP=     1 NCelD=      1
         NCelK=      1 NCelE2=     1 NClLst=     1 CellRange=     0.0.
 One-electron integrals computed using PRISM.
 One-electron integral symmetry used in STVInt
 NBasis=    19 RedAO= T EigKep=  4.88D-02  NBF=    10     1     3     5
 NBsUse=    19 1.00D-06 EigRej= -1.00D+00 NBFU=    10     1     3     5
 Precomputing XC quadrature grid using
 IXCGrd= 4 IRadAn=           0 IRanWt=          -1 IRanGd=           0 AccXCQ= 0.00D+00.
 Generated NRdTot=       0 NPtTot=           0 NUsed=           0 NTot=          32
 NSgBfM=    19    19    19    19    19 MxSgAt=     3 MxSgA2=     3.
 Leave Link  302 at Mon May 27 17:21:09 2019, MaxMem=   131072000 cpu:         0.1
 (Enter /applis/g09/l308.exe)
 Leave Link  308 at Mon May 27 17:21:09 2019, MaxMem=   131072000 cpu:         0.0
 (Enter /applis/g09/l303.exe)
 DipDrv:  MaxL=1.
 Leave Link  303 at Mon May 27 17:21:09 2019, MaxMem=   131072000 cpu:         0.0
 (Enter /applis/g09/l401.exe)
 Initial guess from the checkpoint file:  "OPT_ES.chk"
 B after Tr=     0.000000    0.000000    0.000000
         Rot=    1.000000    0.000000    0.000000    0.000000 Ang=   0.00 deg.
 Guess basis will be translated and rotated to current coordinates.
 JPrj=2 DoOrth=T DoCkMO=T.
 Initial guess orbital symmetries:
       Occupied  (A1) (A1) (B2) (A1) (B1)
       Virtual   (A1) (A1) (A1) (A1) (A1) (A1) (A1) (A2) (B1) (B1)
                 (B2) (B2) (B2) (B2)
 The electronic state of the initial guess is 1-A1.
 Generating alternative initial guess.
 ExpMin= 1.61D-01 ExpMax= 5.48D+03 ExpMxC= 8.25D+02 IAcc=1 IRadAn=         1 AccDes= 0.00D+00
 Harris functional with IExCor=  402 and IRadAn=       1 diagonalized for initial guess.
 HarFok:  IExCor=  402 AccDes= 0.00D+00 IRadAn=         1 IDoV= 1 UseB2=F ITyADJ=14
 ICtDFT=  3500011 ScaDFX=  1.000000  1.000000  1.000000  1.000000
 FoFCou: FMM=F IPFlag=           0 FMFlag=      100000 FMFlg1=           0
         NFxFlg=           0 DoJE=T BraDBF=F KetDBF=T FulRan=T
         wScrn=  0.000000 ICntrl=     500 IOpCl=  0 I1Cent=   200000004 NGrid=           0
         NMat0=    1 NMatS0=      1 NMatT0=    0 NMatD0=    1 NMtDS0=    0 NMtDT0=    0
 Petite list used in FoFCou.
 Harris En= -76.4327359055417    
 Leave Link  401 at Mon May 27 17:21:09 2019, MaxMem=   131072000 cpu:         0.1
 (Enter /applis/g09/l502.exe)
 Closed shell SCF:
 Using DIIS extrapolation, IDIIS=  1040.
 Integral symmetry usage will be decided dynamically.
 Keep R1 ints in memory in symmetry-blocked form, NReq=898557.
 IVT=       20213 IEndB=       20213 NGot=   131072000 MDV=   131045418
 LenX=   131045418 LenY=   131044536
 Requested convergence on RMS density matrix=1.00D-08 within 128 cycles.
 Requested convergence on MAX density matrix=1.00D-06.
 Requested convergence on             energy=1.00D-06.
 No special actions if energy rises.
 FoFCou: FMM=F IPFlag=           0 FMFlag=           0 FMFlg1=           0
         NFxFlg=           0 DoJE=F BraDBF=F KetDBF=F FulRan=T
         wScrn=  0.000000 ICntrl=     600 IOpCl=  0 I1Cent=           0 NGrid=           0
         NMat0=    1 NMatS0=    190 NMatT0=    0 NMatD0=    1 NMtDS0=    0 NMtDT0=    0
 Petite list used in FoFCou.
 Integral accuracy reduced to 1.0D-05 until final iterations.

 Cycle   1  Pass 0  IDiag  1:
 E= -76.3928350588999    
 DIIS: error= 1.66D-02 at cycle   1 NSaved=   1.
 NSaved= 1 IEnMin= 1 EnMin= -76.3928350588999     IErMin= 1 ErrMin= 1.66D-02
 ErrMax= 1.66D-02  0.00D+00 EMaxC= 1.00D-01 BMatC= 4.12D-03 BMatP= 4.12D-03
 IDIUse=3 WtCom= 8.34D-01 WtEn= 1.66D-01
 Coeff-Com:  0.100D+01
 Coeff-En:   0.100D+01
 Coeff:      0.100D+01
 Recover alternate guess density for next cycle.
 RMSDP=1.00D-02 MaxDP=5.77D-02              OVMax= 0.00D+00

 Cycle   2  Pass 0  IDiag  1:
 E= -76.3243739699284     Delta-E=        0.068461088971 Rises=F Damp=F
 Switch densities from cycles 1 and 2 for lowest energy.
 DIIS: error= 7.55D-02 at cycle   2 NSaved=   2.
 NSaved= 2 IEnMin= 1 EnMin= -76.3928350588999     IErMin= 1 ErrMin= 1.66D-02
 ErrMax= 7.55D-02  0.00D+00 EMaxC= 1.00D+00 BMatC= 9.35D-02 BMatP= 4.12D-03
 IDIUse=1 WtCom= 1.00D+00 WtEn= 0.00D+00
 Coeff-Com:  0.108D+01-0.776D-01
 Coeff:      0.108D+01-0.776D-01
 Gap=     1.376 Goal=   None    Shift=    0.000
 RMSDP=4.65D-03 MaxDP=2.97D-02 DE= 6.85D-02 OVMax= 3.38D-02

 Cycle   3  Pass 0  IDiag  1:
 E= -76.3969270607325     Delta-E=       -0.072553090804 Rises=F Damp=F
 DIIS: error= 8.83D-03 at cycle   3 NSaved=   3.
 NSaved= 3 IEnMin= 3 EnMin= -76.3969270607325     IErMin= 3 ErrMin= 8.83D-03
 ErrMax= 8.83D-03  0.00D+00 EMaxC= 1.00D+00 BMatC= 1.20D-03 BMatP= 4.12D-03
 IDIUse=1 WtCom= 1.00D+00 WtEn= 0.00D+00
 Coeff-Com:  0.132D+00 0.667D-01 0.801D+00
 Coeff:      0.132D+00 0.667D-01 0.801D+00
 Gap=     0.322 Goal=   None    Shift=    0.000
 RMSDP=1.08D-03 MaxDP=7.95D-03 DE=-7.26D-02 OVMax= 7.28D-03

 Cycle   4  Pass 0  IDiag  1:
 E= -76.3977759949719     Delta-E=       -0.000848934239 Rises=F Damp=F
 DIIS: error= 9.10D-04 at cycle   4 NSaved=   4.
 NSaved= 4 IEnMin= 4 EnMin= -76.3977759949719     IErMin= 4 ErrMin= 9.10D-04
 ErrMax= 9.10D-04  0.00D+00 EMaxC= 1.00D+00 BMatC= 1.00D-05 BMatP= 1.20D-03
 IDIUse=1 WtCom= 1.00D+00 WtEn= 0.00D+00
 Coeff-Com: -0.197D-01 0.166D-01 0.106D+00 0.898D+00
 Coeff:     -0.197D-01 0.166D-01 0.106D+00 0.898D+00
 Gap=     0.323 Goal=   None    Shift=    0.000
 RMSDP=1.12D-04 MaxDP=7.91D-04 DE=-8.49D-04 OVMax= 9.25D-04

 Cycle   5  Pass 0  IDiag  1:
 E= -76.3977841887705     Delta-E=       -0.000008193799 Rises=F Damp=F
 DIIS: error= 5.49D-05 at cycle   5 NSaved=   5.
 NSaved= 5 IEnMin= 5 EnMin= -76.3977841887705     IErMin= 5 ErrMin= 5.49D-05
 ErrMax= 5.49D-05  0.00D+00 EMaxC= 1.00D+00 BMatC= 4.19D-08 BMatP= 1.00D-05
 IDIUse=1 WtCom= 1.00D+00 WtEn= 0.00D+00
 Coeff-Com:  0.134D-03-0.369D-03-0.833D-02-0.770D-02 0.102D+01
 Coeff:      0.134D-03-0.369D-03-0.833D-02-0.770D-02 0.102D+01
 Gap=     0.323 Goal=   None    Shift=    0.000
 RMSDP=9.60D-06 MaxDP=6.39D-05 DE=-8.19D-06 OVMax= 7.36D-05

 Initial convergence to 1.0D-05 achieved.  Increase integral accuracy.
 Cycle   6  Pass 1  IDiag  1:
 E= -76.3977892608961     Delta-E=       -0.000005072126 Rises=F Damp=F
 DIIS: error= 5.18D-06 at cycle   1 NSaved=   1.
 NSaved= 1 IEnMin= 1 EnMin= -76.3977892608961     IErMin= 1 ErrMin= 5.18D-06
 ErrMax= 5.18D-06  0.00D+00 EMaxC= 1.00D+00 BMatC= 5.05D-10 BMatP= 5.05D-10
 IDIUse=1 WtCom= 1.00D+00 WtEn= 0.00D+00
 Coeff-Com:  0.100D+01
 Coeff:      0.100D+01
 Gap=     0.323 Goal=   None    Shift=    0.000
 RMSDP=9.60D-06 MaxDP=6.39D-05 DE=-5.07D-06 OVMax= 1.86D-05

 Cycle   7  Pass 1  IDiag  1:
 E= -76.3977892605834     Delta-E=        0.000000000313 Rises=F Damp=F
 DIIS: error= 7.71D-06 at cycle   2 NSaved=   2.
 NSaved= 2 IEnMin= 1 EnMin= -76.3977892608961     IErMin= 1 ErrMin= 5.18D-06
 ErrMax= 7.71D-06  0.00D+00 EMaxC= 1.00D+00 BMatC= 1.04D-09 BMatP= 5.05D-10
 IDIUse=1 WtCom= 1.00D+00 WtEn= 0.00D+00
 Coeff-Com:  0.595D+00 0.405D+00
 Coeff:      0.595D+00 0.405D+00
 Gap=     0.323 Goal=   None    Shift=    0.000
 RMSDP=1.21D-06 MaxDP=8.88D-06 DE= 3.13D-10 OVMax= 9.13D-06

 Cycle   8  Pass 1  IDiag  1:
 E= -76.3977892613498     Delta-E=       -0.000000000766 Rises=F Damp=F
 DIIS: error= 5.08D-07 at cycle   3 NSaved=   3.
 NSaved= 3 IEnMin= 3 EnMin= -76.3977892613498     IErMin= 3 ErrMin= 5.08D-07
 ErrMax= 5.08D-07  0.00D+00 EMaxC= 1.00D+00 BMatC= 3.83D-12 BMatP= 5.05D-10
 IDIUse=1 WtCom= 1.00D+00 WtEn= 0.00D+00
 Coeff-Com:  0.292D-01 0.629D-01 0.908D+00
 Coeff:      0.292D-01 0.629D-01 0.908D+00
 Gap=     0.323 Goal=   None    Shift=    0.000
 RMSDP=8.16D-08 MaxDP=4.85D-07 DE=-7.66D-10 OVMax= 5.33D-07

 Cycle   9  Pass 1  IDiag  1:
 E= -76.3977892613528     Delta-E=       -0.000000000003 Rises=F Damp=F
 DIIS: error= 9.46D-08 at cycle   4 NSaved=   4.
 NSaved= 4 IEnMin= 4 EnMin= -76.3977892613528     IErMin= 4 ErrMin= 9.46D-08
 ErrMax= 9.46D-08  0.00D+00 EMaxC= 1.00D+00 BMatC= 1.21D-13 BMatP= 3.83D-12
 IDIUse=1 WtCom= 1.00D+00 WtEn= 0.00D+00
 Coeff-Com: -0.137D-01 0.313D-02 0.161D+00 0.849D+00
 Coeff:     -0.137D-01 0.313D-02 0.161D+00 0.849D+00
 Gap=     0.323 Goal=   None    Shift=    0.000
 RMSDP=1.26D-08 MaxDP=6.01D-08 DE=-3.01D-12 OVMax= 1.26D-07

 Cycle  10  Pass 1  IDiag  1:
 E= -76.3977892613527     Delta-E=        0.000000000000 Rises=F Damp=F
 DIIS: error= 1.54D-08 at cycle   5 NSaved=   5.
 NSaved= 5 IEnMin= 4 EnMin= -76.3977892613528     IErMin= 5 ErrMin= 1.54D-08
 ErrMax= 1.54D-08  0.00D+00 EMaxC= 1.00D+00 BMatC= 2.74D-15 BMatP= 1.21D-13
 IDIUse=1 WtCom= 1.00D+00 WtEn= 0.00D+00
 Coeff-Com: -0.218D-03 0.646D-03-0.145D-01-0.237D-01 0.104D+01
 Coeff:     -0.218D-03 0.646D-03-0.145D-01-0.237D-01 0.104D+01
 Gap=     0.323 Goal=   None    Shift=    0.000
 RMSDP=2.16D-09 MaxDP=1.76D-08 DE= 4.26D-14 OVMax= 2.49D-08

 SCF Done:  E(RB3LYP) =  -76.3977892614     A.U. after   10 cycles
            NFock= 10  Conv=0.22D-08     -V/T= 2.0110
 KE= 7.556706502186D+01 PE=-1.971775627225D+02 EE= 3.685963407775D+01
 Leave Link  502 at Mon May 27 17:21:09 2019, MaxMem=   131072000 cpu:         0.2
 (Enter /applis/g09/l801.exe)
 DoSCS=F DFT=T ScalE2(SS,OS)=  1.000000  1.000000
 ExpMin= 1.61D-01 ExpMax= 5.48D+03 ExpMxC= 8.25D+02 IAcc=3 IRadAn=         5 AccDes= 0.00D+00
 HarFok:  IExCor=  205 AccDes= 0.00D+00 IRadAn=         5 IDoV=-2 UseB2=F ITyADJ=14
 ICtDFT= 12500011 ScaDFX=  1.000000  1.000000  1.000000  1.000000
 Largest valence mixing into a core orbital is  2.83D-05
 Largest core mixing into a valence orbital is  7.08D-06
 Range of M.O.s used for correlation:     2    19
 NBasis=    19 NAE=     5 NBE=     5 NFC=     1 NFV=     0
 NROrb=     18 NOA=     4 NOB=     4 NVA=    14 NVB=    14
 Leave Link  801 at Mon May 27 17:21:09 2019, MaxMem=   131072000 cpu:         0.1
 (Enter /applis/g09/l914.exe)
 RHF ground state
 MDV=   131072000 DFT=T DoStab=F Mixed=T DoRPA=T DoScal=F NonHer=T
 Keep R1, R2, and R3 ints in memory in symmetry-blocked form, NReq=895079.
 FoFCou: FMM=F IPFlag=           0 FMFlag=           0 FMFlg1=           0
         NFxFlg=           0 DoJE=F BraDBF=F KetDBF=F FulRan=T
         wScrn=  0.000000 ICntrl=     600 IOpCl=  0 I1Cent=           0 NGrid=           0
         NMat0=    1 NMatS0=    190 NMatT0=    0 NMatD0=    1 NMtDS0=    0 NMtDT0=    0
 Petite list used in FoFCou.
 Making orbital integer symmetry assigments:
 Orbital symmetries:
       Occupied  (A1) (A1) (B2) (A1) (B1)
       Virtual   (A1) (B2) (B2) (A1) (B1) (A1) (B2) (A1) (A1) (A2)
                 (B1) (A1) (B2) (A1)
 Generating guess from densities on rwf.
 Convergence on wavefunction:    0.000001000000000
 Davidson Disk Diagonalization:  ConvIn= 1.00D-06 SkipCon=T Conv= 1.00D-06.
 Max sub-space:   200 roots to seek:     5 dimension of matrix:          112
 Iteration     1 Dimension    10 NMult     0 NNew     10
 CISAX will form    10 AO SS matrices at one time.
 NMat=    10 NSing=    10 JSym2X=-1.
 Excitation Energies [eV] at current iteration:
 Root      1 :     7.097703505522526
 Root      2 :     8.966378976983050
 Root      3 :     9.816949055588104
 Root      4 :    11.695130379697810
 Root      5 :    13.414761033823020
 Iteration     2 Dimension    20 NMult    10 NNew     10
 CISAX will form    10 AO SS matrices at one time.
 NMat=    10 NSing=    10 JSym2X=-1.
 Root      1 not converged, maximum delta is    0.029901021250161
 Root      2 not converged, maximum delta is    0.044552885912364
 Root      3 not converged, maximum delta is    0.039653787493634
 Root      4 not converged, maximum delta is    0.041101201849566
 Root      5 not converged, maximum delta is    0.011216007843353
 Excitation Energies [eV] at current iteration:
 Root      1 :     7.027734276234500   Change is   -0.069969229288026
 Root      2 :     8.886134029394391   Change is   -0.080244947588659
 Root      3 :     9.673500820819305   Change is   -0.143448234768800
 Root      4 :    11.556147857413130   Change is   -0.138982522284681
 Root      5 :    13.385964373713090   Change is   -0.028796660109924
 Iteration     3 Dimension    30 NMult    20 NNew     10
 CISAX will form    10 AO SS matrices at one time.
 NMat=    10 NSing=    10 JSym2X=-1.
 Root      1 not converged, maximum delta is    0.000653974933882
 Root      2 not converged, maximum delta is    0.000553308160418
 Root      3 not converged, maximum delta is    0.004038092881037
 Root      4 not converged, maximum delta is    0.000654210345467
 Root      5 not converged, maximum delta is    0.000435141614114
 Excitation Energies [eV] at current iteration:
 Root      1 :     7.027642690471791   Change is   -0.000091585762709
 Root      2 :     8.886081186228761   Change is   -0.000052843165628
 Root      3 :     9.672180253880587   Change is   -0.001320566938719
 Root      4 :    11.555985640116030   Change is   -0.000162217297097
 Root      5 :    13.385943788893660   Change is   -0.000020584819432
 Iteration     4 Dimension    40 NMult    30 NNew     10
 CISAX will form    10 AO SS matrices at one time.
 NMat=    10 NSing=    10 JSym2X=-1.
 Root      1 not converged, maximum delta is    0.000031796622562
 Root      2 not converged, maximum delta is    0.000004966206354
 Root      3 not converged, maximum delta is    0.000255507164558
 Root      4 not converged, maximum delta is    0.000019358208271
 Root      5 not converged, maximum delta is    0.000014540168572
 Excitation Energies [eV] at current iteration:
 Root      1 :     7.027642504511395   Change is   -0.000000185960396
 Root      2 :     8.886081175614672   Change is   -0.000000010614090
 Root      3 :     9.672162581296442   Change is   -0.000017672584145
 Root      4 :    11.555985475514540   Change is   -0.000000164601498
 Root      5 :    13.385943643511920   Change is   -0.000000145381741
 Iteration     5 Dimension    44 NMult    40 NNew      4
 CISAX will form     4 AO SS matrices at one time.
 NMat=     4 NSing=     4 JSym2X=-1.
 Root      1 has converged.
 Root      2 has converged.
 Root      3 not converged, maximum delta is    0.000040627319872
 Root      4 has converged.
 Root      5 has converged.
 Excitation Energies [eV] at current iteration:
 Root      1 :     7.027642504328455   Change is   -0.000000000182941
 Root      2 :     8.886081175614654   Change is   -0.000000000000018
 Root      3 :     9.672162032442868   Change is   -0.000000548853573
 Root      4 :    11.555985475514500   Change is   -0.000000000000036
 Root      5 :    13.385943643511910   Change is   -0.000000000000006
 Iteration     6 Dimension    46 NMult    44 NNew      2
 CISAX will form     2 AO SS matrices at one time.
 NMat=     2 NSing=     2 JSym2X=-1.
 Root      1 has converged.
 Root      2 has converged.
 Root      3 not converged, maximum delta is    0.000002838008725
 Root      4 has converged.
 Root      5 has converged.
 Excitation Energies [eV] at current iteration:
 Root      1 :     7.027642504328512   Change is    0.000000000000057
 Root      2 :     8.886081175614757   Change is    0.000000000000103
 Root      3 :     9.672162028972320   Change is   -0.000000003470548
 Root      4 :    11.555985475514560   Change is    0.000000000000057
 Root      5 :    13.385943643511880   Change is   -0.000000000000030
 Iteration     7 Dimension    48 NMult    46 NNew      2
 CISAX will form     2 AO SS matrices at one time.
 NMat=     2 NSing=     2 JSym2X=-1.
 Root      1 has converged.
 Root      2 has converged.
 Root      3 has converged.
 Root      4 has converged.
 Root      5 has converged.
 Excitation Energies [eV] at current iteration:
 Root      1 :     7.027642504328559   Change is    0.000000000000047
 Root      2 :     8.886081175614709   Change is   -0.000000000000047
 Root      3 :     9.672162028952609   Change is   -0.000000000019711
 Root      4 :    11.555985475514580   Change is    0.000000000000021
 Root      5 :    13.385943643511950   Change is    0.000000000000073
 Convergence achieved on expansion vectors.
 ***********************************************************************
 Excited states from <AA,BB:AA,BB> singles matrix:
 ***********************************************************************
 
 1PDM for each excited state written to RWF  633
 Ground to excited state transition densities written to RWF  633
 Ground to excited state transition electric dipole moments (Au):
       state          X           Y           Z        Dip. S.      Osc.
         1         0.2145      0.0000      0.0000      0.0460      0.0079
         2         0.0000      0.0000      0.0000      0.0000      0.0000
         3         0.0000      0.0000      0.6099      0.3720      0.0881
         4         0.0000      0.4435      0.0000      0.1967      0.0557
         5         0.0000      1.2568      0.0000      1.5796      0.5180
 Ground to excited state transition velocity dipole moments (Au):
       state          X           Y           Z        Dip. S.      Osc.
         1        -0.1466      0.0000      0.0000      0.0215      0.0555
         2         0.0000      0.0000      0.0000      0.0000      0.0000
         3         0.0000      0.0000     -0.2885      0.0832      0.1561
         4         0.0000     -0.1798      0.0000      0.0323      0.0508
         5         0.0000     -0.6285      0.0000      0.3950      0.5354
 Ground to excited state transition magnetic dipole moments (Au):
       state          X           Y           Z
         1         0.0000      0.3189      0.0000
         2         0.0000      0.0000     -0.4148
         3         0.0000      0.0000      0.0000
         4         0.4943      0.0000      0.0000
         5        -0.0626      0.0000      0.0000
 Ground to excited state transition velocity quadrupole moments (Au):
       state          XX          YY          ZZ          XY          XZ          YZ
         1         0.0000      0.0000      0.0000      0.0000      0.1018      0.0000
         2         0.0000      0.0000      0.0000      0.2018      0.0000      0.0000
         3         0.0168      0.1865      0.2560      0.0000      0.0000      0.0000
         4         0.0000      0.0000      0.0000      0.0000      0.0000      0.2729
         5         0.0000      0.0000      0.0000      0.0000      0.0000      0.5932
 <0|del|b> * <b|rxdel|0> + <0|del|b> * <b|delr+rdel|0>
 Rotatory Strengths (R) in cgs (10**-40 erg-esu-cm/Gauss)
       state          XX          YY          ZZ    R(velocity)    E-M Angle
         1         0.0000      0.0000      0.0000      0.0000       90.00
         2         0.0000      0.0000      0.0000      0.0000       90.00
         3         0.0000      0.0000      0.0000      0.0000       90.00
         4         0.0000      0.0000      0.0000      0.0000       90.00
         5         0.0000      0.0000      0.0000      0.0000       90.00
 1/2[<0|r|b>*<b|rxdel|0> + (<0|rxdel|b>*<b|r|0>)*]
 Rotatory Strengths (R) in cgs (10**-40 erg-esu-cm/Gauss)
       state          XX          YY          ZZ     R(length)
         1         0.0000      0.0000      0.0000      0.0000
         2         0.0000      0.0000      0.0000      0.0000
         3         0.0000      0.0000      0.0000      0.0000
         4         0.0000      0.0000      0.0000      0.0000
         5         0.0000      0.0000      0.0000      0.0000
  1/2[<0|del|b>*<b|r|0> + (<0|r|b>*<b|del|0>)*] (Au)
       state          X           Y           Z        Dip. S.   Osc.(frdel)
         1        -0.0314      0.0000      0.0000      0.0314      0.0210
         2         0.0000      0.0000      0.0000      0.0000      0.0000
         3         0.0000      0.0000     -0.1760      0.1760      0.1173
         4         0.0000     -0.0797      0.0000      0.0797      0.0532
         5         0.0000     -0.7899      0.0000      0.7899      0.5266

 Excitation energies and oscillator strengths:
 
 Excited State   1:      Singlet-B1     7.0276 eV  176.42 nm  f=0.0079  <S**2>=0.000
       5 ->  6         0.70723
 This state for optimization and/or second-order correction.
 Total Energy, E(TD-HF/TD-KS) =  -76.1395281402    
 Copying the excited state density for this state as the 1-particle RhoCI density.
 
 Excited State   2:      Singlet-A2     8.8861 eV  139.53 nm  f=0.0000  <S**2>=0.000
       5 ->  7         0.70671
 
 Excited State   3:      Singlet-A1     9.6722 eV  128.19 nm  f=0.0881  <S**2>=0.000
       3 ->  7        -0.11612
       4 ->  6         0.69737
 
[...]
 Number     Number       Type             X           Y           Z
 ---------------------------------------------------------------------
      1          8           0        0.000000    0.000000   -0.499777
      2          1           0        0.000000    1.272715   -0.500112
      3          1           0        0.000000   -1.272715   -0.500112
 ---------------------------------------------------------------------
                    Distance matrix (angstroms):
                    1          2          3
     1  O    0.000000
     2  H    1.272715   0.000000
     3  H    1.272715   2.545430   0.000000
 Stoichiometry    H2O
 Framework group  C2V[C2(O),SGV(H2)]
 Deg. of freedom     2
 Full point group                 C2V     NOp   4
 RotChk:  IX=0 Diff= 3.29D-13
 Largest Abelian subgroup         C2V     NOp   4
 Largest concise Abelian subgroup C2      NOp   2
                         Standard orientation:                         
 ---------------------------------------------------------------------
 Center     Atomic      Atomic             Coordinates (Angstroms)
 Number     Number       Type             X           Y           Z
 ---------------------------------------------------------------------
      1          8           0        0.000000    0.000000    0.000067
      2          1           0        0.000000    1.272715   -0.000268
      3          1           0        0.000000   -1.272715   -0.000268
 ---------------------------------------------------------------------
 Rotational constants (GHZ):***************    154.7889268    154.7889173
 Leave Link  202 at Mon May 27 17:21:39 2019, MaxMem=   131072000 cpu:         0.0
 (Enter /applis/g09/l601.exe)
 Copying SCF densities to generalized density rwf, IOpCl= 0 IROHF=0.

 **********************************************************************

            Population analysis using the SCF density.

 **********************************************************************

 Orbital symmetries:
       Occupied  (A1) (A1) (B2) (A1) (B1)
       Virtual   (A1) (B2) (A1) (B2) (B1) (A1) (A1) (B2) (A2) (B2)
                 (A1) (B1) (A1) (A1)
 The electronic state is 1-A1.
 Alpha  occ. eigenvalues --  -19.09212  -0.84460  -0.44527  -0.22004  -0.22004
 Alpha virt. eigenvalues --   -0.10150   0.08304   0.62568   0.72820   0.93881
 Alpha virt. eigenvalues --    0.93881   1.01565   1.37418   1.81482   1.81482
 Alpha virt. eigenvalues --    1.89172   1.89172   2.20348   3.47526
     Molecular Orbital Coefficients:
                           1         2         3         4         5
                        (A1)--O   (A1)--O   (B2)--O   (A1)--O   (B1)--O
     Eigenvalues --   -19.09212  -0.84460  -0.44527  -0.22004  -0.22004
   1 1   O  1S          0.99301  -0.22004   0.00000  -0.00010   0.00000
   2        2S          0.02596   0.47988   0.00000   0.00017   0.00000
   3        2PX         0.00000   0.00000   0.00000   0.00000   0.63555
   4        2PY         0.00000   0.00000   0.43065   0.00000   0.00000
   5        2PZ         0.00000  -0.00009   0.00000   0.63555   0.00000
   6        3S          0.00916   0.52622   0.00000   0.00052   0.00000
   7        3PX         0.00000   0.00000   0.00000   0.00000   0.51652
   8        3PY         0.00000   0.00000   0.26664   0.00000   0.00000
   9        3PZ         0.00000  -0.00005   0.00000   0.51652   0.00000
  10        4XX        -0.00745  -0.01337   0.00000   0.00000   0.00000
  11        4YY        -0.00740   0.02792   0.00000  -0.00001   0.00000
  12        4ZZ        -0.00745  -0.01337   0.00000  -0.00005   0.00000
  13        4XY         0.00000   0.00000   0.00000   0.00000   0.00000
  14        4XZ         0.00000   0.00000   0.00000   0.00000  -0.00003
  15        4YZ         0.00000   0.00000  -0.00003   0.00000   0.00000
  16 2   H  1S          0.00024   0.09007   0.23788  -0.00020   0.00000
  17        2S         -0.00084   0.03174   0.20134  -0.00033   0.00000
  18 3   H  1S          0.00024   0.09007  -0.23788  -0.00020   0.00000
  19        2S         -0.00084   0.03174  -0.20134  -0.00033   0.00000
                           6         7         8         9        10
                        (A1)--V   (B2)--V   (A1)--V   (B2)--V   (B1)--V
     Eigenvalues --    -0.10150   0.08304   0.62568   0.72820   0.93881
   1 1   O  1S         -0.11013   0.00000  -0.01216   0.00000   0.00000
   2        2S          0.17668   0.00000   0.04158   0.00000   0.00000
   3        2PX         0.00000   0.00000   0.00000   0.00000  -0.96546
   4        2PY         0.00000  -0.48842   0.00000   0.53513   0.00000
   5        2PZ        -0.00045   0.00000  -0.00008   0.00000   0.00000
   6        3S          0.78053   0.00000  -0.38089   0.00000   0.00000
   7        3PX         0.00000   0.00000   0.00000   0.00000   1.03405
   8        3PY         0.00000  -0.75047   0.00000  -0.52392   0.00000
   9        3PZ        -0.00042   0.00000   0.00006   0.00000   0.00000
  10        4XX        -0.03186   0.00000   0.06357   0.00000   0.00000
  11        4YY        -0.04450   0.00000  -0.21383   0.00000   0.00000
  12        4ZZ        -0.03186   0.00000   0.06357   0.00000   0.00000
  13        4XY         0.00000   0.00000   0.00000   0.00000   0.00000
  14        4XZ         0.00000   0.00000   0.00000   0.00000   0.00000
  15        4YZ         0.00000   0.00002   0.00000   0.00008   0.00000
  16 2   H  1S         -0.28200   0.11944  -0.80477  -0.77322   0.00000
  17        2S         -0.64471   0.86439   0.87422   0.93358   0.00000
  18 3   H  1S         -0.28200  -0.11944  -0.80477   0.77322   0.00000
  19        2S         -0.64471  -0.86439   0.87422  -0.93358   0.00000
                          11        12        13        14        15
                        (A1)--V   (A1)--V   (B2)--V   (A2)--V   (B2)--V
     Eigenvalues --     0.93881   1.01565   1.37418   1.81482   1.81482
   1 1   O  1S          0.00001  -0.04674   0.00000   0.00000   0.00000
   2        2S          0.00003  -1.53833   0.00000   0.00000   0.00000
   3        2PX         0.00000   0.00000   0.00000   0.00000   0.00000
   4        2PY         0.00000   0.00000  -0.89252   0.00000   0.00041
   5        2PZ        -0.96546   0.00001   0.00000   0.00000   0.00000
   6        3S         -0.00013   3.09796   0.00000   0.00000   0.00000
   7        3PX         0.00000   0.00000   0.00000   0.00000   0.00000
   8        3PY         0.00000   0.00000   1.70546   0.00000  -0.00089
   9        3PZ         1.03405  -0.00014   0.00000   0.00000   0.00000
  10        4XX        -0.00002  -0.46745   0.00000   0.00000   0.00000
  11        4YY         0.00004  -0.55084   0.00000   0.00000   0.00000
  12        4ZZ        -0.00003  -0.46745   0.00000   0.00000   0.00000
  13        4XY         0.00000   0.00000   0.00000   1.00000   0.00000
  14        4XZ         0.00000   0.00000   0.00000   0.00000   0.00000
  15        4YZ         0.00000   0.00000   0.00040   0.00000   1.00000
  16 2   H  1S          0.00007   0.00411  -0.62616   0.00000   0.00053
  17        2S          0.00007  -0.57706  -0.25239   0.00000   0.00006
  18 3   H  1S          0.00007   0.00411   0.62616   0.00000  -0.00053
  19        2S          0.00007  -0.57706   0.25239   0.00000  -0.00006
                          16        17        18        19
                        (A1)--V   (B1)--V   (A1)--V   (A1)--V
     Eigenvalues --     1.89172   1.89172   2.20348   3.47526
   1 1   O  1S          0.00000   0.00000   0.00283  -0.44056
   2        2S          0.00000   0.00000  -0.28698   0.45631
   3        2PX         0.00000   0.00002   0.00000   0.00000
   4        2PY         0.00000   0.00000   0.00000   0.00000
   5        2PZ        -0.00002   0.00000   0.00004   0.00004
   6        3S          0.00000   0.00000   0.36032   3.00245
   7        3PX         0.00000   0.00002   0.00000   0.00000
   8        3PY         0.00000   0.00000   0.00000   0.00000
   9        3PZ        -0.00002   0.00000  -0.00014  -0.00011
  10        4XX         0.86603   0.00000  -0.54816  -1.49694
  11        4YY         0.00000   0.00000   1.05624  -1.35021
  12        4ZZ        -0.86603   0.00000  -0.54816  -1.49694
  13        4XY         0.00000   0.00000   0.00000   0.00000
  14        4XZ         0.00000   1.00000   0.00000   0.00000
  15        4YZ         0.00000   0.00000   0.00000   0.00000
  16 2   H  1S          0.00000   0.00000  -0.51099   0.04738
  17        2S          0.00000   0.00000   0.15864  -0.33809
  18 3   H  1S          0.00000   0.00000  -0.51099   0.04738
  19        2S          0.00000   0.00000   0.15864  -0.33809
     Density Matrix:
                           1         2         3         4         5
   1 1   O  1S          2.06899
   2        2S         -0.15963   0.46192
   3        2PX         0.00000   0.00000   0.80786
   4        2PY         0.00000   0.00000   0.00000   0.37091
   5        2PZ        -0.00009   0.00014   0.00000   0.00000   0.80786
   6        3S         -0.21339   0.50553   0.00000   0.00000   0.00056
   7        3PX         0.00000   0.00000   0.65656   0.00000   0.00000
   8        3PY         0.00000   0.00000   0.00000   0.22966   0.00000
   9        3PZ        -0.00007   0.00013   0.00000   0.00000   0.65655
  10        4XX        -0.00892  -0.01322   0.00000   0.00000   0.00000
  11        4YY        -0.02699   0.02641   0.00000   0.00000  -0.00002
  12        4ZZ        -0.00892  -0.01322   0.00000   0.00000  -0.00007
  13        4XY         0.00000   0.00000   0.00000   0.00000   0.00000
  14        4XZ         0.00000   0.00000  -0.00004   0.00000   0.00000
  15        4YZ         0.00000   0.00000   0.00000  -0.00003   0.00000
  16 2   H  1S         -0.03916   0.08646   0.00000   0.20488  -0.00027
  17        2S         -0.01565   0.03042   0.00000   0.17341  -0.00042
  18 3   H  1S         -0.03916   0.08646   0.00000  -0.20488  -0.00027
  19        2S         -0.01565   0.03042   0.00000  -0.17341  -0.00042
                           6         7         8         9        10
   6        3S          0.55399
   7        3PX         0.00000   0.53359
   8        3PY         0.00000   0.00000   0.14220
   9        3PZ         0.00048   0.00000   0.00000   0.53359
  10        4XX        -0.01421   0.00000   0.00000   0.00000   0.00047
  11        4YY         0.02924   0.00000   0.00000  -0.00002  -0.00064
  12        4ZZ        -0.01421   0.00000   0.00000  -0.00005   0.00047
  13        4XY         0.00000   0.00000   0.00000   0.00000   0.00000
  14        4XZ         0.00000  -0.00003   0.00000   0.00000   0.00000
  15        4YZ         0.00000   0.00000  -0.00002   0.00000   0.00000
  16 2   H  1S          0.09480   0.00000   0.12686  -0.00021  -0.00241
  17        2S          0.03339   0.00000   0.10737  -0.00034  -0.00084
  18 3   H  1S          0.09480   0.00000  -0.12686  -0.00021  -0.00241
  19        2S          0.03339   0.00000  -0.10737  -0.00034  -0.00084
                          11        12        13        14        15
  11        4YY         0.00167
  12        4ZZ        -0.00064   0.00047
  13        4XY         0.00000   0.00000   0.00000
  14        4XZ         0.00000   0.00000   0.00000   0.00000
  15        4YZ         0.00000   0.00000   0.00000   0.00000   0.00000
  16 2   H  1S          0.00503  -0.00241   0.00000   0.00000  -0.00001
  17        2S          0.00178  -0.00084   0.00000   0.00000  -0.00001
  18 3   H  1S          0.00503  -0.00241   0.00000   0.00000   0.00001
  19        2S          0.00178  -0.00084   0.00000   0.00000   0.00001
                          16        17        18        19
  16 2   H  1S          0.12940
  17        2S          0.10151   0.08309
  18 3   H  1S         -0.09695  -0.09007   0.12940
  19        2S         -0.09007  -0.07906   0.10151   0.08309
    Full Mulliken population analysis:
                           1         2         3         4         5
   1 1   O  1S          2.06899
   2        2S         -0.03730   0.46192
   3        2PX         0.00000   0.00000   0.80786
   4        2PY         0.00000   0.00000   0.00000   0.37091
   5        2PZ         0.00000   0.00000   0.00000   0.00000   0.80786
   6        3S         -0.03570   0.38604   0.00000   0.00000   0.00000
   7        3PX         0.00000   0.00000   0.32928   0.00000   0.00000
   8        3PY         0.00000   0.00000   0.00000   0.11518   0.00000
   9        3PZ         0.00000   0.00000   0.00000   0.00000   0.32928
  10        4XX        -0.00030  -0.00723   0.00000   0.00000   0.00000
  11        4YY        -0.00090   0.01445   0.00000   0.00000   0.00000
  12        4ZZ        -0.00030  -0.00723   0.00000   0.00000   0.00000
  13        4XY         0.00000   0.00000   0.00000   0.00000   0.00000
  14        4XZ         0.00000   0.00000   0.00000   0.00000   0.00000
  15        4YZ         0.00000   0.00000   0.00000   0.00000   0.00000
  16 2   H  1S         -0.00031   0.00784   0.00000   0.02609   0.00000
  17        2S         -0.00073   0.00819   0.00000   0.02392   0.00000
  18 3   H  1S         -0.00031   0.00784   0.00000   0.02609   0.00000
  19        2S         -0.00073   0.00819   0.00000   0.02392   0.00000
                           6         7         8         9        10
   6        3S          0.55399
   7        3PX         0.00000   0.53359
   8        3PY         0.00000   0.00000   0.14220
   9        3PZ         0.00000   0.00000   0.00000   0.53359
  10        4XX        -0.00993   0.00000   0.00000   0.00000   0.00047
  11        4YY         0.02044   0.00000   0.00000   0.00000  -0.00021
  12        4ZZ        -0.00993   0.00000   0.00000   0.00000   0.00016
  13        4XY         0.00000   0.00000   0.00000   0.00000   0.00000
  14        4XZ         0.00000   0.00000   0.00000   0.00000   0.00000
  15        4YZ         0.00000   0.00000   0.00000   0.00000   0.00000
  16 2   H  1S          0.02480   0.00000   0.06001   0.00000  -0.00016
  17        2S          0.01772   0.00000   0.05327   0.00000  -0.00024
  18 3   H  1S          0.02480   0.00000   0.06001   0.00000  -0.00016
  19        2S          0.01772   0.00000   0.05327   0.00000  -0.00024
                          11        12        13        14        15
  11        4YY         0.00167
  12        4ZZ        -0.00021   0.00047
  13        4XY         0.00000   0.00000   0.00000
  14        4XZ         0.00000   0.00000   0.00000   0.00000
  15        4YZ         0.00000   0.00000   0.00000   0.00000   0.00000
  16 2   H  1S          0.00159  -0.00016   0.00000   0.00000   0.00000
  17        2S          0.00067  -0.00024   0.00000   0.00000   0.00000
  18 3   H  1S          0.00159  -0.00016   0.00000   0.00000   0.00000
  19        2S          0.00067  -0.00024   0.00000   0.00000   0.00000
                          16        17        18        19
  16 2   H  1S          0.12940
  17        2S          0.06682   0.08309
  18 3   H  1S         -0.00004  -0.00287   0.12940
  19        2S         -0.00287  -0.01224   0.06682   0.08309
     Gross orbital populations:
                           1
   1 1   O  1S          1.99242
   2        2S          0.84268
   3        2PX         1.13714
   4        2PY         0.58612
   5        2PZ         1.13713
   6        3S          0.98998
   7        3PX         0.86286
   8        3PY         0.48395
   9        3PZ         0.86286
  10        4XX        -0.01785
  11        4YY         0.03976
  12        4ZZ        -0.01785
  13        4XY         0.00000
  14        4XZ         0.00000
  15        4YZ         0.00000
  16 2   H  1S          0.31302
  17        2S          0.23738
  18 3   H  1S          0.31302
  19        2S          0.23738
          Condensed to atoms (all electrons):
               1          2          3
     1  O    8.454649   0.222277   0.222277
     2  H    0.222277   0.346128  -0.018006
     3  H    0.222277  -0.018006   0.346128
 Mulliken charges:
               1
     1  O   -0.899203
     2  H    0.449601
     3  H    0.449601
 Sum of Mulliken charges =   0.00000
 Mulliken charges with hydrogens summed into heavy atoms:
               1
     1  O    0.000000
 Electronic spatial extent (au):  <R**2>=             22.4390
 Charge=              0.0000 electrons
 Dipole moment (field-independent basis, Debye):
    X=              0.0000    Y=              0.0000    Z=             -0.0015  Tot=              0.0015
 Quadrupole moment (field-independent basis, Debye-Ang):
   XX=             -7.7352   YY=              0.8497   ZZ=             -7.7352
   XY=              0.0000   XZ=              0.0000   YZ=              0.0000
 Traceless Quadrupole moment (field-independent basis, Debye-Ang):
   XX=             -2.8616   YY=              5.7232   ZZ=             -2.8616
   XY=              0.0000   XZ=              0.0000   YZ=              0.0000
 Octapole moment (field-independent basis, Debye-Ang**2):
  XXX=              0.0000  YYY=              0.0000  ZZZ=              0.0000  XYY=              0.0000
  XXY=              0.0000  XXZ=              0.0000  XZZ=              0.0000  YZZ=              0.0000
  YYZ=             -0.0014  XYZ=              0.0000
 Hexadecapole moment (field-independent basis, Debye-Ang**3):
 XXXX=             -5.8707 YYYY=              0.2204 ZZZZ=             -5.8707 XXXY=              0.0000
 XXXZ=              0.0000 YYYX=              0.0000 YYYZ=              0.0000 ZZZX=              0.0000
 ZZZY=              0.0000 XXYY=             -3.3102 XXZZ=             -1.9569 YYZZ=             -3.3102
 XXYZ=              0.0000 YYXZ=              0.0000 ZZXY=              0.0000
 N-N= 6.860471691987D+00 E-N=-1.942560565059D+02  KE= 7.504143100834D+01
 Symmetry A1   KE= 6.789230975488D+01
 Symmetry A2   KE= 9.543286174665D-35
 Symmetry B1   KE= 4.513688805683D+00
 Symmetry B2   KE= 2.635432447777D+00
 Orbital energies and kinetic energies (alpha):
                                 1                 2
   1         (A1)--O         -19.092123         29.040367
   2         (A1)--O          -0.844602          2.648943
   3         (B2)--O          -0.445266          1.317716
   4         (A1)--O          -0.220043          2.256844
   5         (B1)--O          -0.220043          2.256844
   6         (A1)--V          -0.101499          1.157157
   7         (B2)--V           0.083043          1.626010
   8         (A1)--V           0.625678          1.636814
   9         (B2)--V           0.728200          2.592485
  10         (B1)--V           0.938809          3.592345
  11         (A1)--V           0.938809          3.592345
  12         (A1)--V           1.015653          2.078360
  13         (B2)--V           1.374181          3.621929
  14         (A2)--V           1.814818          2.800000
  15         (B2)--V           1.814818          2.800001
  16         (A1)--V           1.891722          2.800000
  17         (B1)--V           1.891722          2.800000
  18         (A1)--V           2.203480          3.475304
  19         (A1)--V           3.475264          9.502486
 Total kinetic energy from orbitals= 7.504143100834D+01
 No NMR shielding tensors so no spin-rotation constants.
 Leave Link  601 at Mon May 27 17:21:39 2019, MaxMem=   131072000 cpu:         0.1
 (Enter /applis/g09/l9999.exe)
 1\1\GINC-MOLTECH-CALC0\FOpt\RB3LYP TD-FC\6-31G(d)\H2O1\TCAUCHY\27-May-
 2019\0\\#P OPT TD(nstates=5,root=1) B3LYP 6-31G* Direct gfprint pop=(f
 ull)\\OPT H20 B3LYP 6-31G*\\0,1\O,0.,0.,-0.4997766535\H,0.,1.272714769
 5,-0.5001116732\H,0.,-1.2727147695,-0.5001116732\\Version=EM64L-G09Rev
 D.01\State=1-A1\HF=-76.2280806\RMSD=3.104e-10\RMSF=4.295e-05\Dipole=0.
 ,0.,-0.000095\PG=C02V [C2(O1),SGV(H2)]\\@


 MEMORIES ARE LIKE AN ENGLISH GRAMMER LESSON -
 PRESENT TENSE, AND PAST PERFECT.
 Job cpu time:       0 days  0 hours  0 minutes 32.8 seconds.
 File lengths (MBytes):  RWF=      5 Int=      0 D2E=      0 Chk=      1 Scr=      1
 Normal termination of Gaussian 09 at Mon May 27 17:21:39 2019.
