 Entering Gaussian System, Link 0=g09
 Input=TD.inp
 Output=TD.log
 Initial command:
 /applis/g09/l1.exe "/tmp/Gau-35587.inp" -scrdir="/tmp/"
 Entering Link 1 = /applis/g09/l1.exe PID=     35589.
  
 Copyright (c) 1988,1990,1992,1993,1995,1998,2003,2009,2013,
            Gaussian, Inc.  All Rights Reserved.
  
 This is part of the Gaussian(R) 09 program.  It is based on
 the Gaussian(R) 03 system (copyright 2003, Gaussian, Inc.),
 the Gaussian(R) 98 system (copyright 1998, Gaussian, Inc.),
 the Gaussian(R) 94 system (copyright 1995, Gaussian, Inc.),
 the Gaussian 92(TM) system (copyright 1992, Gaussian, Inc.),
 the Gaussian 90(TM) system (copyright 1990, Gaussian, Inc.),
 the Gaussian 88(TM) system (copyright 1988, Gaussian, Inc.),
 the Gaussian 86(TM) system (copyright 1986, Carnegie Mellon
 University), and the Gaussian 82(TM) system (copyright 1983,
 Carnegie Mellon University). Gaussian is a federally registered
 trademark of Gaussian, Inc.
  
 This software contains proprietary and confidential information,
 including trade secrets, belonging to Gaussian, Inc.
  
 This software is provided under written license and may be
 used, copied, transmitted, or stored only in accord with that
 written license.
  
 The following legend is applicable only to US Government
 contracts under FAR:
  
                    RESTRICTED RIGHTS LEGEND
  
 Use, reproduction and disclosure by the US Government is
 subject to restrictions as set forth in subparagraphs (a)
 and (c) of the Commercial Computer Software - Restricted
 Rights clause in FAR 52.227-19.
  
 Gaussian, Inc.
 340 Quinnipiac St., Bldg. 40, Wallingford CT 06492
  
  
 ---------------------------------------------------------------
 Warning -- This program may not be used in any manner that
 competes with the business of Gaussian, Inc. or will provide
 assistance to any competitor of Gaussian, Inc.  The licensee
 of this program is prohibited from giving any competitor of
 Gaussian, Inc. access to this program.  By using this program,
 the user acknowledges that Gaussian, Inc. is engaged in the
 business of creating and licensing software in the field of
 computational chemistry and represents and warrants to the
 licensee that it is not a competitor of Gaussian, Inc. and that
 it will not use this program in any manner prohibited above.
 ---------------------------------------------------------------
  

 Cite this work as:
 Gaussian 09, Revision D.01,
 M. J. Frisch, G. W. Trucks, H. B. Schlegel, G. E. Scuseria, 
 M. A. Robb, J. R. Cheeseman, G. Scalmani, V. Barone, B. Mennucci, 
 G. A. Petersson, H. Nakatsuji, M. Caricato, X. Li, H. P. Hratchian, 
 A. F. Izmaylov, J. Bloino, G. Zheng, J. L. Sonnenberg, M. Hada, 
 M. Ehara, K. Toyota, R. Fukuda, J. Hasegawa, M. Ishida, T. Nakajima, 
 Y. Honda, O. Kitao, H. Nakai, T. Vreven, J. A. Montgomery, Jr., 
 J. E. Peralta, F. Ogliaro, M. Bearpark, J. J. Heyd, E. Brothers, 
 K. N. Kudin, V. N. Staroverov, T. Keith, R. Kobayashi, J. Normand, 
 K. Raghavachari, A. Rendell, J. C. Burant, S. S. Iyengar, J. Tomasi, 
 M. Cossi, N. Rega, J. M. Millam, M. Klene, J. E. Knox, J. B. Cross, 
 V. Bakken, C. Adamo, J. Jaramillo, R. Gomperts, R. E. Stratmann, 
 O. Yazyev, A. J. Austin, R. Cammi, C. Pomelli, J. W. Ochterski, 
 R. L. Martin, K. Morokuma, V. G. Zakrzewski, G. A. Voth, 
 P. Salvador, J. J. Dannenberg, S. Dapprich, A. D. Daniels, 
 O. Farkas, J. B. Foresman, J. V. Ortiz, J. Cioslowski, 
 and D. J. Fox, Gaussian, Inc., Wallingford CT, 2013.
 
 ******************************************
 Gaussian 09:  EM64L-G09RevD.01 24-Apr-2013
                20-Oct-2021 
 ******************************************
 %Chk=TD
 %NProcShared=20
 Will use up to   20 processors via shared memory.
 %mem=12GB
 --------------------------------------------------------------------
 #p PBE1PBE chkbasis guess=read geom=allcheck TD=(nstates=30) Gfprint
 --------------------------------------------------------------------
 1/29=7,38=1/1;
 2/12=2,40=1/2;
 3/5=7,6=2,11=9,14=-4,16=1,24=100,25=1,30=1,67=1,74=-13,116=-2/1,2,8,3;
 4/5=1/1;
 5/5=2,38=6/2;
 8/6=1,10=1,108=30/1;
 9/41=30,42=1,70=2/14;
 6/7=2,8=2,9=2,10=2/1;
 99/5=1,9=1/99;
 Leave Link    1 at Wed Oct 20 17:51:41 2021, MaxMem=  1610612736 cpu:         1.8
 (Enter /applis/g09/l101.exe)
 Structure from the checkpoint file:  "TD.chk"
 ---------------------------------
 Helicene M Fondamental state form
 ---------------------------------
 Charge =  0 Multiplicity = 1
 Redundant internal coordinates found in file.
 C,0,6.2183983615,-5.2164654249,-1.3412321447
 C,0,5.5258975886,-5.779861513,-2.43470765
 C,0,4.7345040755,-6.9292639758,-2.175517332
 C,0,4.5748883679,-7.394775216,-0.8545754934
 C,0,5.2184008734,-6.7872188326,0.1901189179
 C,0,6.0696707015,-5.7032623766,-0.0670826903
 C,0,4.1656199296,-7.6417886868,-3.2601696127
 C,0,4.4208651907,-7.2733089371,-4.5396948071
 C,0,5.1837924966,-6.1129164229,-4.8431483103
 C,0,5.6584732255,-5.3064798782,-3.7972574613
 C,0,5.4468053434,-5.7297850223,-6.2097930625
 C,0,6.4174376006,-4.7521267283,-6.4773611878
 C,0,7.1039543712,-4.1404078349,-5.3600119267
 C,0,6.4245390719,-4.1254558272,-4.1324625798
 C,0,8.4213890646,-3.5423823345,-5.3829811225
 C,0,8.72021202,-2.5498163106,-4.4369061817
 C,0,7.7062290525,-2.1390484235,-3.495317242
 C,0,6.5596169267,-2.9306924174,-3.3274134704
 C,0,7.8665721786,-0.965982399,-2.7086010376
 C,0,6.9219285728,-0.5713881023,-1.8197587381
 C,0,5.6932036146,-1.2690461614,-1.7132270291
 C,0,5.4805178099,-2.4307862233,-2.5004318616
 C,0,4.663555961,-0.7774921976,-0.8854515802
 C,0,3.4302653668,-1.3718355724,-0.8652594743
 C,0,3.1848428791,-2.4687846874,-1.7032427295
 C,0,4.1804242514,-2.9806560289,-2.4965791897
 H,0,6.6251431567,-5.2475687391,0.7454272044
 H,0,6.8993276116,-4.3932829161,-1.5052210362
 H,0,3.9492719777,-3.8135090768,-3.1455201958
 H,0,2.1966526923,-2.9147557134,-1.7343667041
 H,0,2.6418925454,-0.9819725459,-0.2306636533
 H,0,4.8629876414,0.1014899696,-0.2801504504
 H,0,7.0716594472,0.3193605544,-1.2178671642
 H,0,8.7564320787,-0.361835011,-2.823555243
 C,0,9.4884548562,-4.057021559,-6.2164679629
 C,0,6.5619712106,-4.2639672892,-7.8334430257
 H,0,4.0401557717,-7.8889244954,-5.3435254167
 H,0,3.5677201442,-8.5231928865,-3.0509624839
 H,0,3.9474053819,-8.2646138124,-0.6859983607
 H,0,5.0953485366,-7.1570962832,1.2021880393
 C,0,5.8814388444,-4.9312317234,-8.8852311684
 C,0,6.0247725139,-4.4857421298,-10.2149211281
 C,0,6.7717499229,-3.3770949636,-10.5108698623
 C,0,7.3783975652,-2.6618352944,-9.4686791323
 C,0,7.2748416444,-3.0930047006,-8.1702448177
 C,0,5.0054817593,-6.001989933,-8.5786395772
 H,0,5.5075153959,-5.028831675,-10.9999480743
 H,0,6.8701101226,-3.0375042047,-11.5361667423
 H,0,7.9287051236,-1.7527520501,-9.6857413212
 H,0,7.7375011719,-2.5047037855,-7.3904730488
 C,0,4.7652564584,-6.3520904691,-7.2910566986
 H,0,4.485020796,-6.500807405,-9.390075057
 H,0,4.0274476839,-7.116990924,-7.0895113332
 C,0,10.7476637419,-3.4020981442,-6.2111828262
 C,0,11.7934842903,-3.873748166,-7.0302130723
 C,0,11.6362084801,-4.995695237,-7.7990879936
 C,0,10.4238533198,-5.6979221663,-7.7460183504
 C,0,9.3832472641,-5.2416065993,-6.9769280591
 C,0,10.9638174615,-2.3163430597,-5.326721968
 H,0,12.7388150524,-3.3398970289,-7.0191314298
 H,0,12.4491222299,-5.3553469242,-8.4204233276
 H,0,10.3062562786,-6.6167016971,-8.3102837086
 H,0,8.4708732058,-5.8201063354,-6.9436769272
 C,0,10.0042802737,-1.9401253973,-4.4458960085
 H,0,11.9324985239,-1.8266642174,-5.3264488704
 H,0,10.2331209274,-1.1634564297,-3.7286290461
 Recover connectivity data from disk.
 NAtoms=     66 NQM=       66 NQMF=       0 NMMI=      0 NMMIF=      0
                NMic=       0 NMicF=      0.
                    Isotopes and Nuclear Properties:
 (Nuclear quadrupole moments (NQMom) in fm**2, nuclear magnetic moments (NMagM)
  in nuclear magnetons)

  Atom         1           2           3           4           5           6           7           8           9          10
 IAtWgt=          12          12          12          12          12          12          12          12          12          12
 AtmWgt=  12.0000000  12.0000000  12.0000000  12.0000000  12.0000000  12.0000000  12.0000000  12.0000000  12.0000000  12.0000000
 NucSpn=           0           0           0           0           0           0           0           0           0           0
 AtZEff=  -3.6000000  -3.6000000  -3.6000000  -3.6000000  -3.6000000  -3.6000000  -3.6000000  -3.6000000  -3.6000000  -3.6000000
 NQMom=    0.0000000   0.0000000   0.0000000   0.0000000   0.0000000   0.0000000   0.0000000   0.0000000   0.0000000   0.0000000
 NMagM=    0.0000000   0.0000000   0.0000000   0.0000000   0.0000000   0.0000000   0.0000000   0.0000000   0.0000000   0.0000000
 AtZNuc=   6.0000000   6.0000000   6.0000000   6.0000000   6.0000000   6.0000000   6.0000000   6.0000000   6.0000000   6.0000000

  Atom        11          12          13          14          15          16          17          18          19          20
 IAtWgt=          12          12          12          12          12          12          12          12          12          12
 AtmWgt=  12.0000000  12.0000000  12.0000000  12.0000000  12.0000000  12.0000000  12.0000000  12.0000000  12.0000000  12.0000000
 NucSpn=           0           0           0           0           0           0           0           0           0           0
 AtZEff=  -3.6000000  -3.6000000  -3.6000000  -3.6000000  -3.6000000  -3.6000000  -3.6000000  -3.6000000  -3.6000000  -3.6000000
 NQMom=    0.0000000   0.0000000   0.0000000   0.0000000   0.0000000   0.0000000   0.0000000   0.0000000   0.0000000   0.0000000
 NMagM=    0.0000000   0.0000000   0.0000000   0.0000000   0.0000000   0.0000000   0.0000000   0.0000000   0.0000000   0.0000000
 AtZNuc=   6.0000000   6.0000000   6.0000000   6.0000000   6.0000000   6.0000000   6.0000000   6.0000000   6.0000000   6.0000000

  Atom        21          22          23          24          25          26          27          28          29          30
 IAtWgt=          12          12          12          12          12          12           1           1           1           1
 AtmWgt=  12.0000000  12.0000000  12.0000000  12.0000000  12.0000000  12.0000000   1.0078250   1.0078250   1.0078250   1.0078250
 NucSpn=           0           0           0           0           0           0           1           1           1           1
 AtZEff=  -3.6000000  -3.6000000  -3.6000000  -3.6000000  -3.6000000  -3.6000000  -1.0000000  -1.0000000  -1.0000000  -1.0000000
 NQMom=    0.0000000   0.0000000   0.0000000   0.0000000   0.0000000   0.0000000   0.0000000   0.0000000   0.0000000   0.0000000
 NMagM=    0.0000000   0.0000000   0.0000000   0.0000000   0.0000000   0.0000000   2.7928460   2.7928460   2.7928460   2.7928460
 AtZNuc=   6.0000000   6.0000000   6.0000000   6.0000000   6.0000000   6.0000000   1.0000000   1.0000000   1.0000000   1.0000000

  Atom        31          32          33          34          35          36          37          38          39          40
 IAtWgt=           1           1           1           1          12          12           1           1           1           1
 AtmWgt=   1.0078250   1.0078250   1.0078250   1.0078250  12.0000000  12.0000000   1.0078250   1.0078250   1.0078250   1.0078250
 NucSpn=           1           1           1           1           0           0           1           1           1           1
 AtZEff=  -1.0000000  -1.0000000  -1.0000000  -1.0000000  -3.6000000  -3.6000000  -1.0000000  -1.0000000  -1.0000000  -1.0000000
 NQMom=    0.0000000   0.0000000   0.0000000   0.0000000   0.0000000   0.0000000   0.0000000   0.0000000   0.0000000   0.0000000
 NMagM=    2.7928460   2.7928460   2.7928460   2.7928460   0.0000000   0.0000000   2.7928460   2.7928460   2.7928460   2.7928460
 AtZNuc=   1.0000000   1.0000000   1.0000000   1.0000000   6.0000000   6.0000000   1.0000000   1.0000000   1.0000000   1.0000000

  Atom        41          42          43          44          45          46          47          48          49          50
 IAtWgt=          12          12          12          12          12          12           1           1           1           1
 AtmWgt=  12.0000000  12.0000000  12.0000000  12.0000000  12.0000000  12.0000000   1.0078250   1.0078250   1.0078250   1.0078250
 NucSpn=           0           0           0           0           0           0           1           1           1           1
 AtZEff=  -3.6000000  -3.6000000  -3.6000000  -3.6000000  -3.6000000  -3.6000000  -1.0000000  -1.0000000  -1.0000000  -1.0000000
 NQMom=    0.0000000   0.0000000   0.0000000   0.0000000   0.0000000   0.0000000   0.0000000   0.0000000   0.0000000   0.0000000
 NMagM=    0.0000000   0.0000000   0.0000000   0.0000000   0.0000000   0.0000000   2.7928460   2.7928460   2.7928460   2.7928460
 AtZNuc=   6.0000000   6.0000000   6.0000000   6.0000000   6.0000000   6.0000000   1.0000000   1.0000000   1.0000000   1.0000000

  Atom        51          52          53          54          55          56          57          58          59          60
 IAtWgt=          12           1           1          12          12          12          12          12          12           1
 AtmWgt=  12.0000000   1.0078250   1.0078250  12.0000000  12.0000000  12.0000000  12.0000000  12.0000000  12.0000000   1.0078250
 NucSpn=           0           1           1           0           0           0           0           0           0           1
 AtZEff=  -3.6000000  -1.0000000  -1.0000000  -3.6000000  -3.6000000  -3.6000000  -3.6000000  -3.6000000  -3.6000000  -1.0000000
 NQMom=    0.0000000   0.0000000   0.0000000   0.0000000   0.0000000   0.0000000   0.0000000   0.0000000   0.0000000   0.0000000
 NMagM=    0.0000000   2.7928460   2.7928460   0.0000000   0.0000000   0.0000000   0.0000000   0.0000000   0.0000000   2.7928460
 AtZNuc=   6.0000000   1.0000000   1.0000000   6.0000000   6.0000000   6.0000000   6.0000000   6.0000000   6.0000000   1.0000000

  Atom        61          62          63          64          65          66
 IAtWgt=           1           1           1          12           1           1
 AtmWgt=   1.0078250   1.0078250   1.0078250  12.0000000   1.0078250   1.0078250
 NucSpn=           1           1           1           0           1           1
 AtZEff=  -1.0000000  -1.0000000  -1.0000000  -3.6000000  -1.0000000  -1.0000000
 NQMom=    0.0000000   0.0000000   0.0000000   0.0000000   0.0000000   0.0000000
 NMagM=    2.7928460   2.7928460   2.7928460   0.0000000   2.7928460   2.7928460
 AtZNuc=   1.0000000   1.0000000   1.0000000   6.0000000   1.0000000   1.0000000
 Leave Link  101 at Wed Oct 20 17:51:41 2021, MaxMem=  1610612736 cpu:         7.8
 (Enter /applis/g09/l202.exe)
 Stoichiometry    C42H24
 Framework group  C1[X(C42H24)]
 Deg. of freedom   192
 Full point group                 C1      NOp   1
 RotChk:  IX=0 Diff= 2.65D-15
 Largest Abelian subgroup         C1      NOp   1
 Largest concise Abelian subgroup C1      NOp   1
                         Standard orientation:                         
 ---------------------------------------------------------------------
 Center     Atomic      Atomic             Coordinates (Angstroms)
 Number     Number       Type             X           Y           Z
 ---------------------------------------------------------------------
      1          6           0        3.231937   -0.029710   -1.618650
      2          6           0        2.604558   -1.208173   -1.160087
      3          6           0        3.202334   -2.442608   -1.525387
      4          6           0        4.430407   -2.456293   -2.217280
      5          6           0        5.039291   -1.290197   -2.596885
      6          6           0        4.413573   -0.067588   -2.314961
      7          6           0        2.521249   -3.654285   -1.250156
      8          6           0        1.282087   -3.641698   -0.700217
      9          6           0        0.659483   -2.430356   -0.293196
     10          6           0        1.353257   -1.218174   -0.430460
     11          6           0       -0.659507   -2.430322    0.293275
     12          6           0       -1.353209   -1.218105    0.430546
     13          6           0       -0.701534    0.000015   -0.000126
     14          6           0        0.701572    0.000030    0.000031
     15          6           0       -1.353152    1.218137   -0.430672
     16          6           0       -0.659598    2.430406   -0.293103
     17          6           0        0.659485    2.430442    0.292988
     18          6           0        1.353156    1.218203    0.430496
     19          6           0        1.282568    3.641825    0.699230
     20          6           0        2.521759    3.654365    1.249089
     21          6           0        3.202485    2.442635    1.525069
     22          6           0        2.604436    1.208224    1.160195
     23          6           0        4.430428    2.456246    2.217155
     24          6           0        5.038916    1.290107    2.597311
     25          6           0        4.412975    0.067557    2.315679
     26          6           0        3.231442    0.029741    1.619169
     27          1           0        4.860335    0.859733   -2.656807
     28          1           0        2.767487    0.929369   -1.437980
     29          1           0        2.766780   -0.929270    1.438652
     30          1           0        4.859468   -0.859748    2.657919
     31          1           0        5.979953    1.310712    3.136070
     32          1           0        4.872754    3.416284    2.465041
     33          1           0        2.985289    4.592337    1.538009
     34          1           0        0.757548    4.580017    0.580021
     35          6           0       -2.604453    1.208012   -1.160280
     36          6           0       -2.604484   -1.208025    1.160173
     37          1           0        0.756616   -4.579730   -0.581716
     38          1           0        2.984446   -4.592193   -1.539815
     39          1           0        4.872501   -3.416369   -2.465431
     40          1           0        5.980434   -1.310860   -3.135455
     41          6           0       -3.202282   -2.442407    1.525636
     42          6           0       -4.430337   -2.455971    2.217574
     43          6           0       -5.039200   -1.289807    2.597056
     44          6           0       -4.413519   -0.067235    2.314887
     45          6           0       -3.231918   -0.029452    1.618501
     46          6           0       -2.521261   -3.654166    1.250551
     47          1           0       -4.872479   -3.416001    2.465811
     48          1           0       -5.980282   -1.310399    3.135732
     49          1           0       -4.860254    0.860147    2.656614
     50          1           0       -2.767462    0.929612    1.437746
     51          6           0       -1.282127   -3.641687    0.700514
     52          1           0       -2.984489   -4.592004    1.540388
     53          1           0       -0.756663   -4.579730    0.582112
     54          6           0       -3.202559    2.442362   -1.525259
     55          6           0       -4.430470    2.455847   -2.217398
     56          6           0       -5.038888    1.289637   -2.597465
     57          6           0       -4.412912    0.067142   -2.315677
     58          6           0       -3.231380    0.029450   -1.619152
     59          6           0       -2.521901    3.654144   -1.249314
     60          1           0       -4.872819    3.415837   -2.465425
     61          1           0       -5.979886    1.310151   -3.136296
     62          1           0       -4.859376   -0.860221   -2.657797
     63          1           0       -2.766673   -0.929517   -1.438535
     64          6           0       -1.282707    3.641708   -0.699451
     65          1           0       -2.985478    4.592079   -1.538281
     66          1           0       -0.757741    4.579929   -0.580265
 ---------------------------------------------------------------------
 Rotational constants (GHZ):      0.1285644      0.0758090      0.0638722
 Leave Link  202 at Wed Oct 20 17:51:41 2021, MaxMem=  1610612736 cpu:         0.0
 (Enter /applis/g09/l301.exe)
 Basis read from chk: "TD.chk" (5D, 7F)
 No pseudopotential information found on chk file.
 AO basis set (Overlap normalization):
 Atom C1       Shell     1 S   6     bf    1 -     1          6.107475821358         -0.056143164909         -3.058805756432
      0.4563240000D+04  0.1966650249D-02
      0.6820240000D+03  0.1523060193D-01
      0.1549730000D+03  0.7612690966D-01
      0.4445530000D+02  0.2608010331D+00
      0.1302900000D+02  0.6164620782D+00
      0.1827730000D+01  0.2210060280D+00
 Atom C1       Shell     2 SP   3    bf    2 -     5          6.107475821358         -0.056143164909         -3.058805756432
      0.2096420000D+02  0.1146600807D+00  0.4024869267D-01
      0.4803310000D+01  0.9199996477D+00  0.2375939567D+00
      0.1459330000D+01 -0.3030682134D-02  0.8158538515D+00
 Atom C1       Shell     3 SP   1    bf    6 -     9          6.107475821358         -0.056143164909         -3.058805756432
      0.4834560000D+00  0.1000000000D+01  0.1000000000D+01
 Atom C1       Shell     4 SP   1    bf   10 -    13          6.107475821358         -0.056143164909         -3.058805756432
      0.1455850000D+00  0.1000000000D+01  0.1000000000D+01
 Atom C1       Shell     5 SP   1    bf   14 -    17          6.107475821358         -0.056143164909         -3.058805756432
      0.4380000000D-01  0.1000000000D+01  0.1000000000D+01
 Atom C1       Shell     6 D   1     bf   18 -    22          6.107475821358         -0.056143164909         -3.058805756432
      0.1252000000D+01  0.1000000000D+01
 Atom C1       Shell     7 D   1     bf   23 -    27          6.107475821358         -0.056143164909         -3.058805756432
      0.3130000000D+00  0.1000000000D+01
 Atom C2       Shell     8 S   6     bf   28 -    28          4.921901985660         -2.283116777880         -2.192246223660
      0.4563240000D+04  0.1966650249D-02
      0.6820240000D+03  0.1523060193D-01
      0.1549730000D+03  0.7612690966D-01
      0.4445530000D+02  0.2608010331D+00
      0.1302900000D+02  0.6164620782D+00
      0.1827730000D+01  0.2210060280D+00
 Atom C2       Shell     9 SP   3    bf   29 -    32          4.921901985660         -2.283116777880         -2.192246223660
      0.2096420000D+02  0.1146600807D+00  0.4024869267D-01
      0.4803310000D+01  0.9199996477D+00  0.2375939567D+00
      0.1459330000D+01 -0.3030682134D-02  0.8158538515D+00
 Atom C2       Shell    10 SP   1    bf   33 -    36          4.921901985660         -2.283116777880         -2.192246223660
      0.4834560000D+00  0.1000000000D+01  0.1000000000D+01
 Atom C2       Shell    11 SP   1    bf   37 -    40          4.921901985660         -2.283116777880         -2.192246223660
      0.1455850000D+00  0.1000000000D+01  0.1000000000D+01
 Atom C2       Shell    12 SP   1    bf   41 -    44          4.921901985660         -2.283116777880         -2.192246223660
      0.4380000000D-01  0.1000000000D+01  0.1000000000D+01
 Atom C2       Shell    13 D   1     bf   45 -    49          4.921901985660         -2.283116777880         -2.192246223660
      0.1252000000D+01  0.1000000000D+01
 Atom C2       Shell    14 D   1     bf   50 -    54          4.921901985660         -2.283116777880         -2.192246223660
      0.3130000000D+00  0.1000000000D+01
 Atom C3       Shell    15 S   6     bf   55 -    55          6.051534950618         -4.615860260256         -2.882563402892
      0.4563240000D+04  0.1966650249D-02
      0.6820240000D+03  0.1523060193D-01
      0.1549730000D+03  0.7612690966D-01
      0.4445530000D+02  0.2608010331D+00
      0.1302900000D+02  0.6164620782D+00
      0.1827730000D+01  0.2210060280D+00
 Atom C3       Shell    16 SP   3    bf   56 -    59          6.051534950618         -4.615860260256         -2.882563402892
      0.2096420000D+02  0.1146600807D+00  0.4024869267D-01
      0.4803310000D+01  0.9199996477D+00  0.2375939567D+00
      0.1459330000D+01 -0.3030682134D-02  0.8158538515D+00
 Atom C3       Shell    17 SP   1    bf   60 -    63          6.051534950618         -4.615860260256         -2.882563402892
      0.4834560000D+00  0.1000000000D+01  0.1000000000D+01
 Atom C3       Shell    18 SP   1    bf   64 -    67          6.051534950618         -4.615860260256         -2.882563402892
      0.1455850000D+00  0.1000000000D+01  0.1000000000D+01
 Atom C3       Shell    19 SP   1    bf   68 -    71          6.051534950618         -4.615860260256         -2.882563402892
      0.4380000000D-01  0.1000000000D+01  0.1000000000D+01
 Atom C3       Shell    20 D   1     bf   72 -    76          6.051534950618         -4.615860260256         -2.882563402892
      0.1252000000D+01  0.1000000000D+01
 Atom C3       Shell    21 D   1     bf   77 -    81          6.051534950618         -4.615860260256         -2.882563402892
      0.3130000000D+00  0.1000000000D+01
 Atom C4       Shell    22 S   6     bf   82 -    82          8.372255127284         -4.641720868873         -4.190052562484
      0.4563240000D+04  0.1966650249D-02
      0.6820240000D+03  0.1523060193D-01
      0.1549730000D+03  0.7612690966D-01
      0.4445530000D+02  0.2608010331D+00
      0.1302900000D+02  0.6164620782D+00
      0.1827730000D+01  0.2210060280D+00
 Atom C4       Shell    23 SP   3    bf   83 -    86          8.372255127284         -4.641720868873         -4.190052562484
      0.2096420000D+02  0.1146600807D+00  0.4024869267D-01
      0.4803310000D+01  0.9199996477D+00  0.2375939567D+00
      0.1459330000D+01 -0.3030682134D-02  0.8158538515D+00
 Atom C4       Shell    24 SP   1    bf   87 -    90          8.372255127284         -4.641720868873         -4.190052562484
      0.4834560000D+00  0.1000000000D+01  0.1000000000D+01
 Atom C4       Shell    25 SP   1    bf   91 -    94          8.372255127284         -4.641720868873         -4.190052562484
      0.1455850000D+00  0.1000000000D+01  0.1000000000D+01
 Atom C4       Shell    26 SP   1    bf   95 -    98          8.372255127284         -4.641720868873         -4.190052562484
      0.4380000000D-01  0.1000000000D+01  0.1000000000D+01
 Atom C4       Shell    27 D   1     bf   99 -   103          8.372255127284         -4.641720868873         -4.190052562484
      0.1252000000D+01  0.1000000000D+01
 Atom C4       Shell    28 D   1     bf  104 -   108          8.372255127284         -4.641720868873         -4.190052562484
      0.3130000000D+00  0.1000000000D+01
 Atom C5       Shell    29 S   6     bf  109 -   109          9.522879371386         -2.438118474876         -4.907400605579
      0.4563240000D+04  0.1966650249D-02
      0.6820240000D+03  0.1523060193D-01
      0.1549730000D+03  0.7612690966D-01
      0.4445530000D+02  0.2608010331D+00
      0.1302900000D+02  0.6164620782D+00
      0.1827730000D+01  0.2210060280D+00
 Atom C5       Shell    30 SP   3    bf  110 -   113          9.522879371386         -2.438118474876         -4.907400605579
      0.2096420000D+02  0.1146600807D+00  0.4024869267D-01
      0.4803310000D+01  0.9199996477D+00  0.2375939567D+00
      0.1459330000D+01 -0.3030682134D-02  0.8158538515D+00
 Atom C5       Shell    31 SP   1    bf  114 -   117          9.522879371386         -2.438118474876         -4.907400605579
      0.4834560000D+00  0.1000000000D+01  0.1000000000D+01
 Atom C5       Shell    32 SP   1    bf  118 -   121          9.522879371386         -2.438118474876         -4.907400605579
      0.1455850000D+00  0.1000000000D+01  0.1000000000D+01
 Atom C5       Shell    33 SP   1    bf  122 -   125          9.522879371386         -2.438118474876         -4.907400605579
      0.4380000000D-01  0.1000000000D+01  0.1000000000D+01
 Atom C5       Shell    34 D   1     bf  126 -   130          9.522879371386         -2.438118474876         -4.907400605579
      0.1252000000D+01  0.1000000000D+01
 Atom C5       Shell    35 D   1     bf  131 -   135          9.522879371386         -2.438118474876         -4.907400605579
      0.3130000000D+00  0.1000000000D+01
 Atom C6       Shell    36 S   6     bf  136 -   136          8.340444587604         -0.127723283584         -4.374643077858
      0.4563240000D+04  0.1966650249D-02
      0.6820240000D+03  0.1523060193D-01
      0.1549730000D+03  0.7612690966D-01
      0.4445530000D+02  0.2608010331D+00
      0.1302900000D+02  0.6164620782D+00
      0.1827730000D+01  0.2210060280D+00
 Atom C6       Shell    37 SP   3    bf  137 -   140          8.340444587604         -0.127723283584         -4.374643077858
      0.2096420000D+02  0.1146600807D+00  0.4024869267D-01
      0.4803310000D+01  0.9199996477D+00  0.2375939567D+00
      0.1459330000D+01 -0.3030682134D-02  0.8158538515D+00
 Atom C6       Shell    38 SP   1    bf  141 -   144          8.340444587604         -0.127723283584         -4.374643077858
      0.4834560000D+00  0.1000000000D+01  0.1000000000D+01
 Atom C6       Shell    39 SP   1    bf  145 -   148          8.340444587604         -0.127723283584         -4.374643077858
      0.1455850000D+00  0.1000000000D+01  0.1000000000D+01
 Atom C6       Shell    40 SP   1    bf  149 -   152          8.340444587604         -0.127723283584         -4.374643077858
      0.4380000000D-01  0.1000000000D+01  0.1000000000D+01
 Atom C6       Shell    41 D   1     bf  153 -   157          8.340444587604         -0.127723283584         -4.374643077858
      0.1252000000D+01  0.1000000000D+01
 Atom C6       Shell    42 D   1     bf  158 -   162          8.340444587604         -0.127723283584         -4.374643077858
      0.3130000000D+00  0.1000000000D+01
 Atom C7       Shell    43 S   6     bf  163 -   163          4.764469680940         -6.905598074585         -2.362451543100
      0.4563240000D+04  0.1966650249D-02
      0.6820240000D+03  0.1523060193D-01
      0.1549730000D+03  0.7612690966D-01
      0.4445530000D+02  0.2608010331D+00
      0.1302900000D+02  0.6164620782D+00
      0.1827730000D+01  0.2210060280D+00
 Atom C7       Shell    44 SP   3    bf  164 -   167          4.764469680940         -6.905598074585         -2.362451543100
      0.2096420000D+02  0.1146600807D+00  0.4024869267D-01
      0.4803310000D+01  0.9199996477D+00  0.2375939567D+00
      0.1459330000D+01 -0.3030682134D-02  0.8158538515D+00
 Atom C7       Shell    45 SP   1    bf  168 -   171          4.764469680940         -6.905598074585         -2.362451543100
      0.4834560000D+00  0.1000000000D+01  0.1000000000D+01
 Atom C7       Shell    46 SP   1    bf  172 -   175          4.764469680940         -6.905598074585         -2.362451543100
      0.1455850000D+00  0.1000000000D+01  0.1000000000D+01
 Atom C7       Shell    47 SP   1    bf  176 -   179          4.764469680940         -6.905598074585         -2.362451543100
      0.4380000000D-01  0.1000000000D+01  0.1000000000D+01
 Atom C7       Shell    48 D   1     bf  180 -   184          4.764469680940         -6.905598074585         -2.362451543100
      0.1252000000D+01  0.1000000000D+01
 Atom C7       Shell    49 D   1     bf  185 -   189          4.764469680940         -6.905598074585         -2.362451543100
      0.3130000000D+00  0.1000000000D+01
 Atom C8       Shell    50 S   6     bf  190 -   190          2.422793474278         -6.881812029635         -1.323218835242
      0.4563240000D+04  0.1966650249D-02
      0.6820240000D+03  0.1523060193D-01
      0.1549730000D+03  0.7612690966D-01
      0.4445530000D+02  0.2608010331D+00
      0.1302900000D+02  0.6164620782D+00
      0.1827730000D+01  0.2210060280D+00
 Atom C8       Shell    51 SP   3    bf  191 -   194          2.422793474278         -6.881812029635         -1.323218835242
      0.2096420000D+02  0.1146600807D+00  0.4024869267D-01
      0.4803310000D+01  0.9199996477D+00  0.2375939567D+00
      0.1459330000D+01 -0.3030682134D-02  0.8158538515D+00
 Atom C8       Shell    52 SP   1    bf  195 -   198          2.422793474278         -6.881812029635         -1.323218835242
      0.4834560000D+00  0.1000000000D+01  0.1000000000D+01
 Atom C8       Shell    53 SP   1    bf  199 -   202          2.422793474278         -6.881812029635         -1.323218835242
      0.1455850000D+00  0.1000000000D+01  0.1000000000D+01
 Atom C8       Shell    54 SP   1    bf  203 -   206          2.422793474278         -6.881812029635         -1.323218835242
      0.4380000000D-01  0.1000000000D+01  0.1000000000D+01
 Atom C8       Shell    55 D   1     bf  207 -   211          2.422793474278         -6.881812029635         -1.323218835242
      0.1252000000D+01  0.1000000000D+01
 Atom C8       Shell    56 D   1     bf  212 -   216          2.422793474278         -6.881812029635         -1.323218835242
      0.3130000000D+00  0.1000000000D+01
 Atom C9       Shell    57 S   6     bf  217 -   217          1.246241764815         -4.592706529493         -0.554060459071
      0.4563240000D+04  0.1966650249D-02
      0.6820240000D+03  0.1523060193D-01
      0.1549730000D+03  0.7612690966D-01
      0.4445530000D+02  0.2608010331D+00
      0.1302900000D+02  0.6164620782D+00
      0.1827730000D+01  0.2210060280D+00
 Atom C9       Shell    58 SP   3    bf  218 -   221          1.246241764815         -4.592706529493         -0.554060459071
      0.2096420000D+02  0.1146600807D+00  0.4024869267D-01
      0.4803310000D+01  0.9199996477D+00  0.2375939567D+00
      0.1459330000D+01 -0.3030682134D-02  0.8158538515D+00
 Atom C9       Shell    59 SP   1    bf  222 -   225          1.246241764815         -4.592706529493         -0.554060459071
      0.4834560000D+00  0.1000000000D+01  0.1000000000D+01
 Atom C9       Shell    60 SP   1    bf  226 -   229          1.246241764815         -4.592706529493         -0.554060459071
      0.1455850000D+00  0.1000000000D+01  0.1000000000D+01
 Atom C9       Shell    61 SP   1    bf  230 -   233          1.246241764815         -4.592706529493         -0.554060459071
      0.4380000000D-01  0.1000000000D+01  0.1000000000D+01
 Atom C9       Shell    62 D   1     bf  234 -   238          1.246241764815         -4.592706529493         -0.554060459071
      0.1252000000D+01  0.1000000000D+01
 Atom C9       Shell    63 D   1     bf  239 -   243          1.246241764815         -4.592706529493         -0.554060459071
      0.3130000000D+00  0.1000000000D+01
 Atom C10      Shell    64 S   6     bf  244 -   244          2.557285935161         -2.302015040824         -0.813452445238
      0.4563240000D+04  0.1966650249D-02
      0.6820240000D+03  0.1523060193D-01
      0.1549730000D+03  0.7612690966D-01
      0.4445530000D+02  0.2608010331D+00
      0.1302900000D+02  0.6164620782D+00
      0.1827730000D+01  0.2210060280D+00
 Atom C10      Shell    65 SP   3    bf  245 -   248          2.557285935161         -2.302015040824         -0.813452445238
      0.2096420000D+02  0.1146600807D+00  0.4024869267D-01
      0.4803310000D+01  0.9199996477D+00  0.2375939567D+00
      0.1459330000D+01 -0.3030682134D-02  0.8158538515D+00
 Atom C10      Shell    66 SP   1    bf  249 -   252          2.557285935161         -2.302015040824         -0.813452445238
      0.4834560000D+00  0.1000000000D+01  0.1000000000D+01
 Atom C10      Shell    67 SP   1    bf  253 -   256          2.557285935161         -2.302015040824         -0.813452445238
      0.1455850000D+00  0.1000000000D+01  0.1000000000D+01
 Atom C10      Shell    68 SP   1    bf  257 -   260          2.557285935161         -2.302015040824         -0.813452445238
      0.4380000000D-01  0.1000000000D+01  0.1000000000D+01
 Atom C10      Shell    69 D   1     bf  261 -   265          2.557285935161         -2.302015040824         -0.813452445238
      0.1252000000D+01  0.1000000000D+01
 Atom C10      Shell    70 D   1     bf  266 -   270          2.557285935161         -2.302015040824         -0.813452445238
      0.3130000000D+00  0.1000000000D+01
 Atom C11      Shell    71 S   6     bf  271 -   271         -1.246287947584         -4.592643385658          0.554210201829
      0.4563240000D+04  0.1966650249D-02
      0.6820240000D+03  0.1523060193D-01
      0.1549730000D+03  0.7612690966D-01
      0.4445530000D+02  0.2608010331D+00
      0.1302900000D+02  0.6164620782D+00
      0.1827730000D+01  0.2210060280D+00
 Atom C11      Shell    72 SP   3    bf  272 -   275         -1.246287947584         -4.592643385658          0.554210201829
      0.2096420000D+02  0.1146600807D+00  0.4024869267D-01
      0.4803310000D+01  0.9199996477D+00  0.2375939567D+00
      0.1459330000D+01 -0.3030682134D-02  0.8158538515D+00
 Atom C11      Shell    73 SP   1    bf  276 -   279         -1.246287947584         -4.592643385658          0.554210201829
      0.4834560000D+00  0.1000000000D+01  0.1000000000D+01
 Atom C11      Shell    74 SP   1    bf  280 -   283         -1.246287947584         -4.592643385658          0.554210201829
      0.1455850000D+00  0.1000000000D+01  0.1000000000D+01
 Atom C11      Shell    75 SP   1    bf  284 -   287         -1.246287947584         -4.592643385658          0.554210201829
      0.4380000000D-01  0.1000000000D+01  0.1000000000D+01
 Atom C11      Shell    76 D   1     bf  288 -   292         -1.246287947584         -4.592643385658          0.554210201829
      0.1252000000D+01  0.1000000000D+01
 Atom C11      Shell    77 D   1     bf  293 -   297         -1.246287947584         -4.592643385658          0.554210201829
      0.3130000000D+00  0.1000000000D+01
 Atom C12      Shell    78 S   6     bf  298 -   298         -2.557193590359         -2.301884818360          0.813613953116
      0.4563240000D+04  0.1966650249D-02
      0.6820240000D+03  0.1523060193D-01
      0.1549730000D+03  0.7612690966D-01
      0.4445530000D+02  0.2608010331D+00
      0.1302900000D+02  0.6164620782D+00
      0.1827730000D+01  0.2210060280D+00
 Atom C12      Shell    79 SP   3    bf  299 -   302         -2.557193590359         -2.301884818360          0.813613953116
      0.2096420000D+02  0.1146600807D+00  0.4024869267D-01
      0.4803310000D+01  0.9199996477D+00  0.2375939567D+00
      0.1459330000D+01 -0.3030682134D-02  0.8158538515D+00
 Atom C12      Shell    80 SP   1    bf  303 -   306         -2.557193590359         -2.301884818360          0.813613953116
      0.4834560000D+00  0.1000000000D+01  0.1000000000D+01
 Atom C12      Shell    81 SP   1    bf  307 -   310         -2.557193590359         -2.301884818360          0.813613953116
      0.1455850000D+00  0.1000000000D+01  0.1000000000D+01
 Atom C12      Shell    82 SP   1    bf  311 -   314         -2.557193590359         -2.301884818360          0.813613953116
      0.4380000000D-01  0.1000000000D+01  0.1000000000D+01
 Atom C12      Shell    83 D   1     bf  315 -   319         -2.557193590359         -2.301884818360          0.813613953116
      0.1252000000D+01  0.1000000000D+01
 Atom C12      Shell    84 D   1     bf  320 -   324         -2.557193590359         -2.301884818360          0.813613953116
      0.3130000000D+00  0.1000000000D+01
 Atom C13      Shell    85 S   6     bf  325 -   325         -1.325707583827          0.000028770742         -0.000238205757
      0.4563240000D+04  0.1966650249D-02
      0.6820240000D+03  0.1523060193D-01
      0.1549730000D+03  0.7612690966D-01
      0.4445530000D+02  0.2608010331D+00
      0.1302900000D+02  0.6164620782D+00
      0.1827730000D+01  0.2210060280D+00
 Atom C13      Shell    86 SP   3    bf  326 -   329         -1.325707583827          0.000028770742         -0.000238205757
      0.2096420000D+02  0.1146600807D+00  0.4024869267D-01
      0.4803310000D+01  0.9199996477D+00  0.2375939567D+00
      0.1459330000D+01 -0.3030682134D-02  0.8158538515D+00
 Atom C13      Shell    87 SP   1    bf  330 -   333         -1.325707583827          0.000028770742         -0.000238205757
      0.4834560000D+00  0.1000000000D+01  0.1000000000D+01
 Atom C13      Shell    88 SP   1    bf  334 -   337         -1.325707583827          0.000028770742         -0.000238205757
      0.1455850000D+00  0.1000000000D+01  0.1000000000D+01
 Atom C13      Shell    89 SP   1    bf  338 -   341         -1.325707583827          0.000028770742         -0.000238205757
      0.4380000000D-01  0.1000000000D+01  0.1000000000D+01
 Atom C13      Shell    90 D   1     bf  342 -   346         -1.325707583827          0.000028770742         -0.000238205757
      0.1252000000D+01  0.1000000000D+01
 Atom C13      Shell    91 D   1     bf  347 -   351         -1.325707583827          0.000028770742         -0.000238205757
      0.3130000000D+00  0.1000000000D+01
 Atom C14      Shell    92 S   6     bf  352 -   352          1.325778248072          0.000055848805          0.000059050203
      0.4563240000D+04  0.1966650249D-02
      0.6820240000D+03  0.1523060193D-01
      0.1549730000D+03  0.7612690966D-01
      0.4445530000D+02  0.2608010331D+00
      0.1302900000D+02  0.6164620782D+00
      0.1827730000D+01  0.2210060280D+00
 Atom C14      Shell    93 SP   3    bf  353 -   356          1.325778248072          0.000055848805          0.000059050203
      0.2096420000D+02  0.1146600807D+00  0.4024869267D-01
      0.4803310000D+01  0.9199996477D+00  0.2375939567D+00
      0.1459330000D+01 -0.3030682134D-02  0.8158538515D+00
 Atom C14      Shell    94 SP   1    bf  357 -   360          1.325778248072          0.000055848805          0.000059050203
      0.4834560000D+00  0.1000000000D+01  0.1000000000D+01
 Atom C14      Shell    95 SP   1    bf  361 -   364          1.325778248072          0.000055848805          0.000059050203
      0.1455850000D+00  0.1000000000D+01  0.1000000000D+01
 Atom C14      Shell    96 SP   1    bf  365 -   368          1.325778248072          0.000055848805          0.000059050203
      0.4380000000D-01  0.1000000000D+01  0.1000000000D+01
 Atom C14      Shell    97 D   1     bf  369 -   373          1.325778248072          0.000055848805          0.000059050203
      0.1252000000D+01  0.1000000000D+01
 Atom C14      Shell    98 D   1     bf  374 -   378          1.325778248072          0.000055848805          0.000059050203
      0.3130000000D+00  0.1000000000D+01
 Atom C15      Shell    99 S   6     bf  379 -   379         -2.557087300052          2.301944952164         -0.813852432858
      0.4563240000D+04  0.1966650249D-02
      0.6820240000D+03  0.1523060193D-01
      0.1549730000D+03  0.7612690966D-01
      0.4445530000D+02  0.2608010331D+00
      0.1302900000D+02  0.6164620782D+00
      0.1827730000D+01  0.2210060280D+00
 Atom C15      Shell   100 SP   3    bf  380 -   383         -2.557087300052          2.301944952164         -0.813852432858
      0.2096420000D+02  0.1146600807D+00  0.4024869267D-01
      0.4803310000D+01  0.9199996477D+00  0.2375939567D+00
      0.1459330000D+01 -0.3030682134D-02  0.8158538515D+00
 Atom C15      Shell   101 SP   1    bf  384 -   387         -2.557087300052          2.301944952164         -0.813852432858
      0.4834560000D+00  0.1000000000D+01  0.1000000000D+01
 Atom C15      Shell   102 SP   1    bf  388 -   391         -2.557087300052          2.301944952164         -0.813852432858
      0.1455850000D+00  0.1000000000D+01  0.1000000000D+01
 Atom C15      Shell   103 SP   1    bf  392 -   395         -2.557087300052          2.301944952164         -0.813852432858
      0.4380000000D-01  0.1000000000D+01  0.1000000000D+01
 Atom C15      Shell   104 D   1     bf  396 -   400         -2.557087300052          2.301944952164         -0.813852432858
      0.1252000000D+01  0.1000000000D+01
 Atom C15      Shell   105 D   1     bf  401 -   405         -2.557087300052          2.301944952164         -0.813852432858
      0.3130000000D+00  0.1000000000D+01
 Atom C16      Shell   106 S   6     bf  406 -   406         -1.246458911668          4.592802025701         -0.553884900375
      0.4563240000D+04  0.1966650249D-02
      0.6820240000D+03  0.1523060193D-01
      0.1549730000D+03  0.7612690966D-01
      0.4445530000D+02  0.2608010331D+00
      0.1302900000D+02  0.6164620782D+00
      0.1827730000D+01  0.2210060280D+00
 Atom C16      Shell   107 SP   3    bf  407 -   410         -1.246458911668          4.592802025701         -0.553884900375
      0.2096420000D+02  0.1146600807D+00  0.4024869267D-01
      0.4803310000D+01  0.9199996477D+00  0.2375939567D+00
      0.1459330000D+01 -0.3030682134D-02  0.8158538515D+00
 Atom C16      Shell   108 SP   1    bf  411 -   414         -1.246458911668          4.592802025701         -0.553884900375
      0.4834560000D+00  0.1000000000D+01  0.1000000000D+01
 Atom C16      Shell   109 SP   1    bf  415 -   418         -1.246458911668          4.592802025701         -0.553884900375
      0.1455850000D+00  0.1000000000D+01  0.1000000000D+01
 Atom C16      Shell   110 SP   1    bf  419 -   422         -1.246458911668          4.592802025701         -0.553884900375
      0.4380000000D-01  0.1000000000D+01  0.1000000000D+01
 Atom C16      Shell   111 D   1     bf  423 -   427         -1.246458911668          4.592802025701         -0.553884900375
      0.1252000000D+01  0.1000000000D+01
 Atom C16      Shell   112 D   1     bf  428 -   432         -1.246458911668          4.592802025701         -0.553884900375
      0.3130000000D+00  0.1000000000D+01
 Atom C17      Shell   113 S   6     bf  433 -   433          1.246245275705          4.592868934560          0.553667899932
      0.4563240000D+04  0.1966650249D-02
      0.6820240000D+03  0.1523060193D-01
      0.1549730000D+03  0.7612690966D-01
      0.4445530000D+02  0.2608010331D+00
      0.1302900000D+02  0.6164620782D+00
      0.1827730000D+01  0.2210060280D+00
 Atom C17      Shell   114 SP   3    bf  434 -   437          1.246245275705          4.592868934560          0.553667899932
      0.2096420000D+02  0.1146600807D+00  0.4024869267D-01
      0.4803310000D+01  0.9199996477D+00  0.2375939567D+00
      0.1459330000D+01 -0.3030682134D-02  0.8158538515D+00
 Atom C17      Shell   115 SP   1    bf  438 -   441          1.246245275705          4.592868934560          0.553667899932
      0.4834560000D+00  0.1000000000D+01  0.1000000000D+01
 Atom C17      Shell   116 SP   1    bf  442 -   445          1.246245275705          4.592868934560          0.553667899932
      0.1455850000D+00  0.1000000000D+01  0.1000000000D+01
 Atom C17      Shell   117 SP   1    bf  446 -   449          1.246245275705          4.592868934560          0.553667899932
      0.4380000000D-01  0.1000000000D+01  0.1000000000D+01
 Atom C17      Shell   118 D   1     bf  450 -   454          1.246245275705          4.592868934560          0.553667899932
      0.1252000000D+01  0.1000000000D+01
 Atom C17      Shell   119 D   1     bf  455 -   459          1.246245275705          4.592868934560          0.553667899932
      0.3130000000D+00  0.1000000000D+01
 Atom C18      Shell   120 S   6     bf  460 -   460          2.557095116288          2.302070165271          0.813520233383
      0.4563240000D+04  0.1966650249D-02
      0.6820240000D+03  0.1523060193D-01
      0.1549730000D+03  0.7612690966D-01
      0.4445530000D+02  0.2608010331D+00
      0.1302900000D+02  0.6164620782D+00
      0.1827730000D+01  0.2210060280D+00
 Atom C18      Shell   121 SP   3    bf  461 -   464          2.557095116288          2.302070165271          0.813520233383
      0.2096420000D+02  0.1146600807D+00  0.4024869267D-01
      0.4803310000D+01  0.9199996477D+00  0.2375939567D+00
      0.1459330000D+01 -0.3030682134D-02  0.8158538515D+00
 Atom C18      Shell   122 SP   1    bf  465 -   468          2.557095116288          2.302070165271          0.813520233383
      0.4834560000D+00  0.1000000000D+01  0.1000000000D+01
 Atom C18      Shell   123 SP   1    bf  469 -   472          2.557095116288          2.302070165271          0.813520233383
      0.1455850000D+00  0.1000000000D+01  0.1000000000D+01
 Atom C18      Shell   124 SP   1    bf  473 -   476          2.557095116288          2.302070165271          0.813520233383
      0.4380000000D-01  0.1000000000D+01  0.1000000000D+01
 Atom C18      Shell   125 D   1     bf  477 -   481          2.557095116288          2.302070165271          0.813520233383
      0.1252000000D+01  0.1000000000D+01
 Atom C18      Shell   126 D   1     bf  482 -   486          2.557095116288          2.302070165271          0.813520233383
      0.3130000000D+00  0.1000000000D+01
 Atom C19      Shell   127 S   6     bf  487 -   487          2.423702051114          6.882052808828          1.321353609190
      0.4563240000D+04  0.1966650249D-02
      0.6820240000D+03  0.1523060193D-01
      0.1549730000D+03  0.7612690966D-01
      0.4445530000D+02  0.2608010331D+00
      0.1302900000D+02  0.6164620782D+00
      0.1827730000D+01  0.2210060280D+00
 Atom C19      Shell   128 SP   3    bf  488 -   491          2.423702051114          6.882052808828          1.321353609190
      0.2096420000D+02  0.1146600807D+00  0.4024869267D-01
      0.4803310000D+01  0.9199996477D+00  0.2375939567D+00
      0.1459330000D+01 -0.3030682134D-02  0.8158538515D+00
 Atom C19      Shell   129 SP   1    bf  492 -   495          2.423702051114          6.882052808828          1.321353609190
      0.4834560000D+00  0.1000000000D+01  0.1000000000D+01
 Atom C19      Shell   130 SP   1    bf  496 -   499          2.423702051114          6.882052808828          1.321353609190
      0.1455850000D+00  0.1000000000D+01  0.1000000000D+01
 Atom C19      Shell   131 SP   1    bf  500 -   503          2.423702051114          6.882052808828          1.321353609190
      0.4380000000D-01  0.1000000000D+01  0.1000000000D+01
 Atom C19      Shell   132 D   1     bf  504 -   508          2.423702051114          6.882052808828          1.321353609190
      0.1252000000D+01  0.1000000000D+01
 Atom C19      Shell   133 D   1     bf  509 -   513          2.423702051114          6.882052808828          1.321353609190
      0.3130000000D+00  0.1000000000D+01
 Atom C20      Shell   134 S   6     bf  514 -   514          4.765433988849          6.905748346202          2.360436407485
      0.4563240000D+04  0.1966650249D-02
      0.6820240000D+03  0.1523060193D-01
      0.1549730000D+03  0.7612690966D-01
      0.4445530000D+02  0.2608010331D+00
      0.1302900000D+02  0.6164620782D+00
      0.1827730000D+01  0.2210060280D+00
 Atom C20      Shell   135 SP   3    bf  515 -   518          4.765433988849          6.905748346202          2.360436407485
      0.2096420000D+02  0.1146600807D+00  0.4024869267D-01
      0.4803310000D+01  0.9199996477D+00  0.2375939567D+00
      0.1459330000D+01 -0.3030682134D-02  0.8158538515D+00
 Atom C20      Shell   136 SP   1    bf  519 -   522          4.765433988849          6.905748346202          2.360436407485
      0.4834560000D+00  0.1000000000D+01  0.1000000000D+01
 Atom C20      Shell   137 SP   1    bf  523 -   526          4.765433988849          6.905748346202          2.360436407485
      0.1455850000D+00  0.1000000000D+01  0.1000000000D+01
 Atom C20      Shell   138 SP   1    bf  527 -   530          4.765433988849          6.905748346202          2.360436407485
      0.4380000000D-01  0.1000000000D+01  0.1000000000D+01
 Atom C20      Shell   139 D   1     bf  531 -   535          4.765433988849          6.905748346202          2.360436407485
      0.1252000000D+01  0.1000000000D+01
 Atom C20      Shell   140 D   1     bf  536 -   540          4.765433988849          6.905748346202          2.360436407485
      0.3130000000D+00  0.1000000000D+01
 Atom C21      Shell   141 S   6     bf  541 -   541          6.051818865719          4.615911350316          2.881963189651
      0.4563240000D+04  0.1966650249D-02
      0.6820240000D+03  0.1523060193D-01
      0.1549730000D+03  0.7612690966D-01
      0.4445530000D+02  0.2608010331D+00
      0.1302900000D+02  0.6164620782D+00
      0.1827730000D+01  0.2210060280D+00
 Atom C21      Shell   142 SP   3    bf  542 -   545          6.051818865719          4.615911350316          2.881963189651
      0.2096420000D+02  0.1146600807D+00  0.4024869267D-01
      0.4803310000D+01  0.9199996477D+00  0.2375939567D+00
      0.1459330000D+01 -0.3030682134D-02  0.8158538515D+00
 Atom C21      Shell   143 SP   1    bf  546 -   549          6.051818865719          4.615911350316          2.881963189651
      0.4834560000D+00  0.1000000000D+01  0.1000000000D+01
 Atom C21      Shell   144 SP   1    bf  550 -   553          6.051818865719          4.615911350316          2.881963189651
      0.1455850000D+00  0.1000000000D+01  0.1000000000D+01
 Atom C21      Shell   145 SP   1    bf  554 -   557          6.051818865719          4.615911350316          2.881963189651
      0.4380000000D-01  0.1000000000D+01  0.1000000000D+01
 Atom C21      Shell   146 D   1     bf  558 -   562          6.051818865719          4.615911350316          2.881963189651
      0.1252000000D+01  0.1000000000D+01
 Atom C21      Shell   147 D   1     bf  563 -   567          6.051818865719          4.615911350316          2.881963189651
      0.3130000000D+00  0.1000000000D+01
 Atom C22      Shell   148 S   6     bf  568 -   568          4.921670057023          2.283212183205          2.192451399239
      0.4563240000D+04  0.1966650249D-02
      0.6820240000D+03  0.1523060193D-01
      0.1549730000D+03  0.7612690966D-01
      0.4445530000D+02  0.2608010331D+00
      0.1302900000D+02  0.6164620782D+00
      0.1827730000D+01  0.2210060280D+00
 Atom C22      Shell   149 SP   3    bf  569 -   572          4.921670057023          2.283212183205          2.192451399239
      0.2096420000D+02  0.1146600807D+00  0.4024869267D-01
      0.4803310000D+01  0.9199996477D+00  0.2375939567D+00
      0.1459330000D+01 -0.3030682134D-02  0.8158538515D+00
 Atom C22      Shell   150 SP   1    bf  573 -   576          4.921670057023          2.283212183205          2.192451399239
      0.4834560000D+00  0.1000000000D+01  0.1000000000D+01
 Atom C22      Shell   151 SP   1    bf  577 -   580          4.921670057023          2.283212183205          2.192451399239
      0.1455850000D+00  0.1000000000D+01  0.1000000000D+01
 Atom C22      Shell   152 SP   1    bf  581 -   584          4.921670057023          2.283212183205          2.192451399239
      0.4380000000D-01  0.1000000000D+01  0.1000000000D+01
 Atom C22      Shell   153 D   1     bf  585 -   589          4.921670057023          2.283212183205          2.192451399239
      0.1252000000D+01  0.1000000000D+01
 Atom C22      Shell   154 D   1     bf  590 -   594          4.921670057023          2.283212183205          2.192451399239
      0.3130000000D+00  0.1000000000D+01
 Atom C23      Shell   155 S   6     bf  595 -   595          8.372295119406          4.641631936293          4.189815000579
      0.4563240000D+04  0.1966650249D-02
      0.6820240000D+03  0.1523060193D-01
      0.1549730000D+03  0.7612690966D-01
      0.4445530000D+02  0.2608010331D+00
      0.1302900000D+02  0.6164620782D+00
      0.1827730000D+01  0.2210060280D+00
 Atom C23      Shell   156 SP   3    bf  596 -   599          8.372295119406          4.641631936293          4.189815000579
      0.2096420000D+02  0.1146600807D+00  0.4024869267D-01
      0.4803310000D+01  0.9199996477D+00  0.2375939567D+00
      0.1459330000D+01 -0.3030682134D-02  0.8158538515D+00
 Atom C23      Shell   157 SP   1    bf  600 -   603          8.372295119406          4.641631936293          4.189815000579
      0.4834560000D+00  0.1000000000D+01  0.1000000000D+01
 Atom C23      Shell   158 SP   1    bf  604 -   607          8.372295119406          4.641631936293          4.189815000579
      0.1455850000D+00  0.1000000000D+01  0.1000000000D+01
 Atom C23      Shell   159 SP   1    bf  608 -   611          8.372295119406          4.641631936293          4.189815000579
      0.4380000000D-01  0.1000000000D+01  0.1000000000D+01
 Atom C23      Shell   160 D   1     bf  612 -   616          8.372295119406          4.641631936293          4.189815000579
      0.1252000000D+01  0.1000000000D+01
 Atom C23      Shell   161 D   1     bf  617 -   621          8.372295119406          4.641631936293          4.189815000579
      0.3130000000D+00  0.1000000000D+01
 Atom C24      Shell   162 S   6     bf  622 -   622          9.522171472407          2.437948057917          4.908205635725
      0.4563240000D+04  0.1966650249D-02
      0.6820240000D+03  0.1523060193D-01
      0.1549730000D+03  0.7612690966D-01
      0.4445530000D+02  0.2608010331D+00
      0.1302900000D+02  0.6164620782D+00
      0.1827730000D+01  0.2210060280D+00
 Atom C24      Shell   163 SP   3    bf  623 -   626          9.522171472407          2.437948057917          4.908205635725
      0.2096420000D+02  0.1146600807D+00  0.4024869267D-01
      0.4803310000D+01  0.9199996477D+00  0.2375939567D+00
      0.1459330000D+01 -0.3030682134D-02  0.8158538515D+00
 Atom C24      Shell   164 SP   1    bf  627 -   630          9.522171472407          2.437948057917          4.908205635725
      0.4834560000D+00  0.1000000000D+01  0.1000000000D+01
 Atom C24      Shell   165 SP   1    bf  631 -   634          9.522171472407          2.437948057917          4.908205635725
      0.1455850000D+00  0.1000000000D+01  0.1000000000D+01
 Atom C24      Shell   166 SP   1    bf  635 -   638          9.522171472407          2.437948057917          4.908205635725
      0.4380000000D-01  0.1000000000D+01  0.1000000000D+01
 Atom C24      Shell   167 D   1     bf  639 -   643          9.522171472407          2.437948057917          4.908205635725
      0.1252000000D+01  0.1000000000D+01
 Atom C24      Shell   168 D   1     bf  644 -   648          9.522171472407          2.437948057917          4.908205635725
      0.3130000000D+00  0.1000000000D+01
 Atom C25      Shell   169 S   6     bf  649 -   649          8.339314022834          0.127664624936          4.375999504664
      0.4563240000D+04  0.1966650249D-02
      0.6820240000D+03  0.1523060193D-01
      0.1549730000D+03  0.7612690966D-01
      0.4445530000D+02  0.2608010331D+00
      0.1302900000D+02  0.6164620782D+00
      0.1827730000D+01  0.2210060280D+00
 Atom C25      Shell   170 SP   3    bf  650 -   653          8.339314022834          0.127664624936          4.375999504664
      0.2096420000D+02  0.1146600807D+00  0.4024869267D-01
      0.4803310000D+01  0.9199996477D+00  0.2375939567D+00
      0.1459330000D+01 -0.3030682134D-02  0.8158538515D+00
 Atom C25      Shell   171 SP   1    bf  654 -   657          8.339314022834          0.127664624936          4.375999504664
      0.4834560000D+00  0.1000000000D+01  0.1000000000D+01
 Atom C25      Shell   172 SP   1    bf  658 -   661          8.339314022834          0.127664624936          4.375999504664
      0.1455850000D+00  0.1000000000D+01  0.1000000000D+01
 Atom C25      Shell   173 SP   1    bf  662 -   665          8.339314022834          0.127664624936          4.375999504664
      0.4380000000D-01  0.1000000000D+01  0.1000000000D+01
 Atom C25      Shell   174 D   1     bf  666 -   670          8.339314022834          0.127664624936          4.375999504664
      0.1252000000D+01  0.1000000000D+01
 Atom C25      Shell   175 D   1     bf  671 -   675          8.339314022834          0.127664624936          4.375999504664
      0.3130000000D+00  0.1000000000D+01
 Atom C26      Shell   176 S   6     bf  676 -   676          6.106539722635          0.056202658290          3.059786121098
      0.4563240000D+04  0.1966650249D-02
      0.6820240000D+03  0.1523060193D-01
      0.1549730000D+03  0.7612690966D-01
      0.4445530000D+02  0.2608010331D+00
      0.1302900000D+02  0.6164620782D+00
      0.1827730000D+01  0.2210060280D+00
 Atom C26      Shell   177 SP   3    bf  677 -   680          6.106539722635          0.056202658290          3.059786121098
      0.2096420000D+02  0.1146600807D+00  0.4024869267D-01
      0.4803310000D+01  0.9199996477D+00  0.2375939567D+00
      0.1459330000D+01 -0.3030682134D-02  0.8158538515D+00
 Atom C26      Shell   178 SP   1    bf  681 -   684          6.106539722635          0.056202658290          3.059786121098
      0.4834560000D+00  0.1000000000D+01  0.1000000000D+01
 Atom C26      Shell   179 SP   1    bf  685 -   688          6.106539722635          0.056202658290          3.059786121098
      0.1455850000D+00  0.1000000000D+01  0.1000000000D+01
 Atom C26      Shell   180 SP   1    bf  689 -   692          6.106539722635          0.056202658290          3.059786121098
      0.4380000000D-01  0.1000000000D+01  0.1000000000D+01
 Atom C26      Shell   181 D   1     bf  693 -   697          6.106539722635          0.056202658290          3.059786121098
      0.1252000000D+01  0.1000000000D+01
 Atom C26      Shell   182 D   1     bf  698 -   702          6.106539722635          0.056202658290          3.059786121098
      0.3130000000D+00  0.1000000000D+01
 Atom H27      Shell   183 S   3     bf  703 -   703          9.184701256890          1.624659795595         -5.020637460614
      0.3386500000D+02  0.2549381454D-01
      0.5094790000D+01  0.1903731086D+00
      0.1158790000D+01  0.8521614860D+00
 Atom H27      Shell   184 S   1     bf  704 -   704          9.184701256890          1.624659795595         -5.020637460614
      0.3258400000D+00  0.1000000000D+01
 Atom H27      Shell   185 S   1     bf  705 -   705          9.184701256890          1.624659795595         -5.020637460614
      0.1027410000D+00  0.1000000000D+01
 Atom H27      Shell   186 P   1     bf  706 -   708          9.184701256890          1.624659795595         -5.020637460614
      0.7500000000D+00  0.1000000000D+01
 Atom H28      Shell   187 S   3     bf  709 -   709          5.229793035676          1.756251982057         -2.717387665721
      0.3386500000D+02  0.2549381454D-01
      0.5094790000D+01  0.1903731086D+00
      0.1158790000D+01  0.8521614860D+00
 Atom H28      Shell   188 S   1     bf  710 -   710          5.229793035676          1.756251982057         -2.717387665721
      0.3258400000D+00  0.1000000000D+01
 Atom H28      Shell   189 S   1     bf  711 -   711          5.229793035676          1.756251982057         -2.717387665721
      0.1027410000D+00  0.1000000000D+01
 Atom H28      Shell   190 P   1     bf  712 -   714          5.229793035676          1.756251982057         -2.717387665721
      0.7500000000D+00  0.1000000000D+01
 Atom H29      Shell   191 S   3     bf  715 -   715          5.228456573361         -1.756066494944          2.718657883794
      0.3386500000D+02  0.2549381454D-01
      0.5094790000D+01  0.1903731086D+00
      0.1158790000D+01  0.8521614860D+00
 Atom H29      Shell   192 S   1     bf  716 -   716          5.228456573361         -1.756066494944          2.718657883794
      0.3258400000D+00  0.1000000000D+01
 Atom H29      Shell   193 S   1     bf  717 -   717          5.228456573361         -1.756066494944          2.718657883794
      0.1027410000D+00  0.1000000000D+01
 Atom H29      Shell   194 P   1     bf  718 -   720          5.228456573361         -1.756066494944          2.718657883794
      0.7500000000D+00  0.1000000000D+01
 Atom H30      Shell   195 S   3     bf  721 -   721          9.183063052080         -1.624688492817          5.022738070234
      0.3386500000D+02  0.2549381454D-01
      0.5094790000D+01  0.1903731086D+00
      0.1158790000D+01  0.8521614860D+00
 Atom H30      Shell   196 S   1     bf  722 -   722          9.183063052080         -1.624688492817          5.022738070234
      0.3258400000D+00  0.1000000000D+01
 Atom H30      Shell   197 S   1     bf  723 -   723          9.183063052080         -1.624688492817          5.022738070234
      0.1027410000D+00  0.1000000000D+01
 Atom H30      Shell   198 P   1     bf  724 -   726          9.183063052080         -1.624688492817          5.022738070234
      0.7500000000D+00  0.1000000000D+01
 Atom H31      Shell   199 S   3     bf  727 -   727         11.300473541561          2.476886181876          5.926313323183
      0.3386500000D+02  0.2549381454D-01
      0.5094790000D+01  0.1903731086D+00
      0.1158790000D+01  0.8521614860D+00
 Atom H31      Shell   200 S   1     bf  728 -   728         11.300473541561          2.476886181876          5.926313323183
      0.3258400000D+00  0.1000000000D+01
 Atom H31      Shell   201 S   1     bf  729 -   729         11.300473541561          2.476886181876          5.926313323183
      0.1027410000D+00  0.1000000000D+01
 Atom H31      Shell   202 P   1     bf  730 -   732         11.300473541561          2.476886181876          5.926313323183
      0.7500000000D+00  0.1000000000D+01
 Atom H32      Shell   203 S   3     bf  733 -   733          9.208169667001          6.455840272303          4.658252281611
      0.3386500000D+02  0.2549381454D-01
      0.5094790000D+01  0.1903731086D+00
      0.1158790000D+01  0.8521614860D+00
 Atom H32      Shell   204 S   1     bf  734 -   734          9.208169667001          6.455840272303          4.658252281611
      0.3258400000D+00  0.1000000000D+01
 Atom H32      Shell   205 S   1     bf  735 -   735          9.208169667001          6.455840272303          4.658252281611
      0.1027410000D+00  0.1000000000D+01
 Atom H32      Shell   206 P   1     bf  736 -   738          9.208169667001          6.455840272303          4.658252281611
      0.7500000000D+00  0.1000000000D+01
 Atom H33      Shell   207 S   3     bf  739 -   739          5.641378864991          8.678258418319          2.906415226395
      0.3386500000D+02  0.2549381454D-01
      0.5094790000D+01  0.1903731086D+00
      0.1158790000D+01  0.8521614860D+00
 Atom H33      Shell   208 S   1     bf  740 -   740          5.641378864991          8.678258418319          2.906415226395
      0.3258400000D+00  0.1000000000D+01
 Atom H33      Shell   209 S   1     bf  741 -   741          5.641378864991          8.678258418319          2.906415226395
      0.1027410000D+00  0.1000000000D+01
 Atom H33      Shell   210 P   1     bf  742 -   744          5.641378864991          8.678258418319          2.906415226395
      0.7500000000D+00  0.1000000000D+01
 Atom H34      Shell   211 S   3     bf  745 -   745          1.431559085857          8.654977473176          1.096081149621
      0.3386500000D+02  0.2549381454D-01
      0.5094790000D+01  0.1903731086D+00
      0.1158790000D+01  0.8521614860D+00
 Atom H34      Shell   212 S   1     bf  746 -   746          1.431559085857          8.654977473176          1.096081149621
      0.3258400000D+00  0.1000000000D+01
 Atom H34      Shell   213 S   1     bf  747 -   747          1.431559085857          8.654977473176          1.096081149621
      0.1027410000D+00  0.1000000000D+01
 Atom H34      Shell   214 P   1     bf  748 -   750          1.431559085857          8.654977473176          1.096081149621
      0.7500000000D+00  0.1000000000D+01
 Atom C35      Shell   215 S   6     bf  751 -   751         -4.921702486650          2.282811804532         -2.192611804284
      0.4563240000D+04  0.1966650249D-02
      0.6820240000D+03  0.1523060193D-01
      0.1549730000D+03  0.7612690966D-01
      0.4445530000D+02  0.2608010331D+00
      0.1302900000D+02  0.6164620782D+00
      0.1827730000D+01  0.2210060280D+00
 Atom C35      Shell   216 SP   3    bf  752 -   755         -4.921702486650          2.282811804532         -2.192611804284
      0.2096420000D+02  0.1146600807D+00  0.4024869267D-01
      0.4803310000D+01  0.9199996477D+00  0.2375939567D+00
      0.1459330000D+01 -0.3030682134D-02  0.8158538515D+00
 Atom C35      Shell   217 SP   1    bf  756 -   759         -4.921702486650          2.282811804532         -2.192611804284
      0.4834560000D+00  0.1000000000D+01  0.1000000000D+01
 Atom C35      Shell   218 SP   1    bf  760 -   763         -4.921702486650          2.282811804532         -2.192611804284
      0.1455850000D+00  0.1000000000D+01  0.1000000000D+01
 Atom C35      Shell   219 SP   1    bf  764 -   767         -4.921702486650          2.282811804532         -2.192611804284
      0.4380000000D-01  0.1000000000D+01  0.1000000000D+01
 Atom C35      Shell   220 D   1     bf  768 -   772         -4.921702486650          2.282811804532         -2.192611804284
      0.1252000000D+01  0.1000000000D+01
 Atom C35      Shell   221 D   1     bf  773 -   777         -4.921702486650          2.282811804532         -2.192611804284
      0.3130000000D+00  0.1000000000D+01
 Atom C36      Shell   222 S   6     bf  778 -   778         -4.921761160217         -2.282837180844          2.192409945826
      0.4563240000D+04  0.1966650249D-02
      0.6820240000D+03  0.1523060193D-01
      0.1549730000D+03  0.7612690966D-01
      0.4445530000D+02  0.2608010331D+00
      0.1302900000D+02  0.6164620782D+00
      0.1827730000D+01  0.2210060280D+00
 Atom C36      Shell   223 SP   3    bf  779 -   782         -4.921761160217         -2.282837180844          2.192409945826
      0.2096420000D+02  0.1146600807D+00  0.4024869267D-01
      0.4803310000D+01  0.9199996477D+00  0.2375939567D+00
      0.1459330000D+01 -0.3030682134D-02  0.8158538515D+00
 Atom C36      Shell   224 SP   1    bf  783 -   786         -4.921761160217         -2.282837180844          2.192409945826
      0.4834560000D+00  0.1000000000D+01  0.1000000000D+01
 Atom C36      Shell   225 SP   1    bf  787 -   790         -4.921761160217         -2.282837180844          2.192409945826
      0.1455850000D+00  0.1000000000D+01  0.1000000000D+01
 Atom C36      Shell   226 SP   1    bf  791 -   794         -4.921761160217         -2.282837180844          2.192409945826
      0.4380000000D-01  0.1000000000D+01  0.1000000000D+01
 Atom C36      Shell   227 D   1     bf  795 -   799         -4.921761160217         -2.282837180844          2.192409945826
      0.1252000000D+01  0.1000000000D+01
 Atom C36      Shell   228 D   1     bf  800 -   804         -4.921761160217         -2.282837180844          2.192409945826
      0.3130000000D+00  0.1000000000D+01
 Atom H37      Shell   229 S   3     bf  805 -   805          1.429796683544         -8.654434722614         -1.099283320011
      0.3386500000D+02  0.2549381454D-01
      0.5094790000D+01  0.1903731086D+00
      0.1158790000D+01  0.8521614860D+00
 Atom H37      Shell   230 S   1     bf  806 -   806          1.429796683544         -8.654434722614         -1.099283320011
      0.3258400000D+00  0.1000000000D+01
 Atom H37      Shell   231 S   1     bf  807 -   807          1.429796683544         -8.654434722614         -1.099283320011
      0.1027410000D+00  0.1000000000D+01
 Atom H37      Shell   232 P   1     bf  808 -   810          1.429796683544         -8.654434722614         -1.099283320011
      0.7500000000D+00  0.1000000000D+01
 Atom H38      Shell   233 S   3     bf  811 -   811          5.639785353845         -8.677986806156         -2.909828871739
      0.3386500000D+02  0.2549381454D-01
      0.5094790000D+01  0.1903731086D+00
      0.1158790000D+01  0.8521614860D+00
 Atom H38      Shell   234 S   1     bf  812 -   812          5.639785353845         -8.677986806156         -2.909828871739
      0.3258400000D+00  0.1000000000D+01
 Atom H38      Shell   235 S   1     bf  813 -   813          5.639785353845         -8.677986806156         -2.909828871739
      0.1027410000D+00  0.1000000000D+01
 Atom H38      Shell   236 P   1     bf  814 -   816          5.639785353845         -8.677986806156         -2.909828871739
      0.7500000000D+00  0.1000000000D+01
 Atom H39      Shell   237 S   3     bf  817 -   817          9.207692467634         -6.456001622681         -4.658989917777
      0.3386500000D+02  0.2549381454D-01
      0.5094790000D+01  0.1903731086D+00
      0.1158790000D+01  0.8521614860D+00
 Atom H39      Shell   238 S   1     bf  818 -   818          9.207692467634         -6.456001622681         -4.658989917777
      0.3258400000D+00  0.1000000000D+01
 Atom H39      Shell   239 S   1     bf  819 -   819          9.207692467634         -6.456001622681         -4.658989917777
      0.1027410000D+00  0.1000000000D+01
 Atom H39      Shell   240 P   1     bf  820 -   822          9.207692467634         -6.456001622681         -4.658989917777
      0.7500000000D+00  0.1000000000D+01
 Atom H40      Shell   241 S   3     bf  823 -   823         11.301381575017         -2.477165479153         -5.925151615088
      0.3386500000D+02  0.2549381454D-01
      0.5094790000D+01  0.1903731086D+00
      0.1158790000D+01  0.8521614860D+00
 Atom H40      Shell   242 S   1     bf  824 -   824         11.301381575017         -2.477165479153         -5.925151615088
      0.3258400000D+00  0.1000000000D+01
 Atom H40      Shell   243 S   1     bf  825 -   825         11.301381575017         -2.477165479153         -5.925151615088
      0.1027410000D+00  0.1000000000D+01
 Atom H40      Shell   244 P   1     bf  826 -   828         11.301381575017         -2.477165479153         -5.925151615088
      0.7500000000D+00  0.1000000000D+01
 Atom C41      Shell   245 S   6     bf  829 -   829         -6.051436478836         -4.615481055704          2.883033365438
      0.4563240000D+04  0.1966650249D-02
      0.6820240000D+03  0.1523060193D-01
      0.1549730000D+03  0.7612690966D-01
      0.4445530000D+02  0.2608010331D+00
      0.1302900000D+02  0.6164620782D+00
      0.1827730000D+01  0.2210060280D+00
 Atom C41      Shell   246 SP   3    bf  830 -   833         -6.051436478836         -4.615481055704          2.883033365438
      0.2096420000D+02  0.1146600807D+00  0.4024869267D-01
      0.4803310000D+01  0.9199996477D+00  0.2375939567D+00
      0.1459330000D+01 -0.3030682134D-02  0.8158538515D+00
 Atom C41      Shell   247 SP   1    bf  834 -   837         -6.051436478836         -4.615481055704          2.883033365438
      0.4834560000D+00  0.1000000000D+01  0.1000000000D+01
 Atom C41      Shell   248 SP   1    bf  838 -   841         -6.051436478836         -4.615481055704          2.883033365438
      0.1455850000D+00  0.1000000000D+01  0.1000000000D+01
 Atom C41      Shell   249 SP   1    bf  842 -   845         -6.051436478836         -4.615481055704          2.883033365438
      0.4380000000D-01  0.1000000000D+01  0.1000000000D+01
 Atom C41      Shell   250 D   1     bf  846 -   850         -6.051436478836         -4.615481055704          2.883033365438
      0.1252000000D+01  0.1000000000D+01
 Atom C41      Shell   251 D   1     bf  851 -   855         -6.051436478836         -4.615481055704          2.883033365438
      0.3130000000D+00  0.1000000000D+01
 Atom C42      Shell   252 S   6     bf  856 -   856         -8.372123611357         -4.641113261836          4.190607081217
      0.4563240000D+04  0.1966650249D-02
      0.6820240000D+03  0.1523060193D-01
      0.1549730000D+03  0.7612690966D-01
      0.4445530000D+02  0.2608010331D+00
      0.1302900000D+02  0.6164620782D+00
      0.1827730000D+01  0.2210060280D+00
 Atom C42      Shell   253 SP   3    bf  857 -   860         -8.372123611357         -4.641113261836          4.190607081217
      0.2096420000D+02  0.1146600807D+00  0.4024869267D-01
      0.4803310000D+01  0.9199996477D+00  0.2375939567D+00
      0.1459330000D+01 -0.3030682134D-02  0.8158538515D+00
 Atom C42      Shell   254 SP   1    bf  861 -   864         -8.372123611357         -4.641113261836          4.190607081217
      0.4834560000D+00  0.1000000000D+01  0.1000000000D+01
 Atom C42      Shell   255 SP   1    bf  865 -   868         -8.372123611357         -4.641113261836          4.190607081217
      0.1455850000D+00  0.1000000000D+01  0.1000000000D+01
 Atom C42      Shell   256 SP   1    bf  869 -   872         -8.372123611357         -4.641113261836          4.190607081217
      0.4380000000D-01  0.1000000000D+01  0.1000000000D+01
 Atom C42      Shell   257 D   1     bf  873 -   877         -8.372123611357         -4.641113261836          4.190607081217
      0.1252000000D+01  0.1000000000D+01
 Atom C42      Shell   258 D   1     bf  878 -   882         -8.372123611357         -4.641113261836          4.190607081217
      0.3130000000D+00  0.1000000000D+01
 Atom C43      Shell   259 S   6     bf  883 -   883         -9.522708213049         -2.437382907503          4.907724959712
      0.4563240000D+04  0.1966650249D-02
      0.6820240000D+03  0.1523060193D-01
      0.1549730000D+03  0.7612690966D-01
      0.4445530000D+02  0.2608010331D+00
      0.1302900000D+02  0.6164620782D+00
      0.1827730000D+01  0.2210060280D+00
 Atom C43      Shell   260 SP   3    bf  884 -   887         -9.522708213049         -2.437382907503          4.907724959712
      0.2096420000D+02  0.1146600807D+00  0.4024869267D-01
      0.4803310000D+01  0.9199996477D+00  0.2375939567D+00
      0.1459330000D+01 -0.3030682134D-02  0.8158538515D+00
 Atom C43      Shell   261 SP   1    bf  888 -   891         -9.522708213049         -2.437382907503          4.907724959712
      0.4834560000D+00  0.1000000000D+01  0.1000000000D+01
 Atom C43      Shell   262 SP   1    bf  892 -   895         -9.522708213049         -2.437382907503          4.907724959712
      0.1455850000D+00  0.1000000000D+01  0.1000000000D+01
 Atom C43      Shell   263 SP   1    bf  896 -   899         -9.522708213049         -2.437382907503          4.907724959712
      0.4380000000D-01  0.1000000000D+01  0.1000000000D+01
 Atom C43      Shell   264 D   1     bf  900 -   904         -9.522708213049         -2.437382907503          4.907724959712
      0.1252000000D+01  0.1000000000D+01
 Atom C43      Shell   265 D   1     bf  905 -   909         -9.522708213049         -2.437382907503          4.907724959712
      0.3130000000D+00  0.1000000000D+01
 Atom C44      Shell   266 S   6     bf  910 -   910         -8.340343000113         -0.127055759042          4.374502441760
      0.4563240000D+04  0.1966650249D-02
      0.6820240000D+03  0.1523060193D-01
      0.1549730000D+03  0.7612690966D-01
      0.4445530000D+02  0.2608010331D+00
      0.1302900000D+02  0.6164620782D+00
      0.1827730000D+01  0.2210060280D+00
 Atom C44      Shell   267 SP   3    bf  911 -   914         -8.340343000113         -0.127055759042          4.374502441760
      0.2096420000D+02  0.1146600807D+00  0.4024869267D-01
      0.4803310000D+01  0.9199996477D+00  0.2375939567D+00
      0.1459330000D+01 -0.3030682134D-02  0.8158538515D+00
 Atom C44      Shell   268 SP   1    bf  915 -   918         -8.340343000113         -0.127055759042          4.374502441760
      0.4834560000D+00  0.1000000000D+01  0.1000000000D+01
 Atom C44      Shell   269 SP   1    bf  919 -   922         -8.340343000113         -0.127055759042          4.374502441760
      0.1455850000D+00  0.1000000000D+01  0.1000000000D+01
 Atom C44      Shell   270 SP   1    bf  923 -   926         -8.340343000113         -0.127055759042          4.374502441760
      0.4380000000D-01  0.1000000000D+01  0.1000000000D+01
 Atom C44      Shell   271 D   1     bf  927 -   931         -8.340343000113         -0.127055759042          4.374502441760
      0.1252000000D+01  0.1000000000D+01
 Atom C44      Shell   272 D   1     bf  932 -   936         -8.340343000113         -0.127055759042          4.374502441760
      0.3130000000D+00  0.1000000000D+01
 Atom C45      Shell   273 S   6     bf  937 -   937         -6.107440006192         -0.055656427616          3.058523970574
      0.4563240000D+04  0.1966650249D-02
      0.6820240000D+03  0.1523060193D-01
      0.1549730000D+03  0.7612690966D-01
      0.4445530000D+02  0.2608010331D+00
      0.1302900000D+02  0.6164620782D+00
      0.1827730000D+01  0.2210060280D+00
 Atom C45      Shell   274 SP   3    bf  938 -   941         -6.107440006192         -0.055656427616          3.058523970574
      0.2096420000D+02  0.1146600807D+00  0.4024869267D-01
      0.4803310000D+01  0.9199996477D+00  0.2375939567D+00
      0.1459330000D+01 -0.3030682134D-02  0.8158538515D+00
[...]
 Alpha virt. eigenvalues --    0.81804   0.81808   0.81828   0.82278   0.82562
 Alpha virt. eigenvalues --    0.82720   0.82796   0.83413   0.83427   0.83692
 Alpha virt. eigenvalues --    0.83716   0.83723   0.83825   0.83914   0.84165
 Alpha virt. eigenvalues --    0.84426   0.84615   0.85032   0.85133   0.85137
 Alpha virt. eigenvalues --    0.85490   0.85569   0.85744   0.85784   0.85958
 Alpha virt. eigenvalues --    0.86129   0.86325   0.86573   0.86783   0.86812
 Alpha virt. eigenvalues --    0.87510   0.87593   0.87982   0.88295   0.88593
 Alpha virt. eigenvalues --    0.88859   0.89587   0.89795   0.90078   0.90130
 Alpha virt. eigenvalues --    0.90270   0.90798   0.91091   0.91123   0.91343
 Alpha virt. eigenvalues --    0.92032   0.92096   0.92141   0.92601   0.92607
 Alpha virt. eigenvalues --    0.93207   0.93274   0.93805   0.94144   0.94500
 Alpha virt. eigenvalues --    0.94532   0.94950   0.95759   0.96219   0.96965
 Alpha virt. eigenvalues --    0.97241   0.97592   0.98617   0.98921   0.99056
 Alpha virt. eigenvalues --    0.99840   0.99929   1.00063   1.00145   1.00761
 Alpha virt. eigenvalues --    1.01057   1.02522   1.02589   1.03099   1.03332
 Alpha virt. eigenvalues --    1.03510   1.04185   1.05142   1.05233   1.05389
 Alpha virt. eigenvalues --    1.05658   1.06250   1.06349   1.07776   1.07799
 Alpha virt. eigenvalues --    1.07995   1.10087   1.10158   1.10546   1.11482
 Alpha virt. eigenvalues --    1.11842   1.12012   1.12362   1.12603   1.13028
 Alpha virt. eigenvalues --    1.13480   1.13804   1.14178   1.14523   1.15568
 Alpha virt. eigenvalues --    1.15572   1.16000   1.16012   1.16075   1.16738
 Alpha virt. eigenvalues --    1.17563   1.18004   1.18260   1.18976   1.19454
 Alpha virt. eigenvalues --    1.20399   1.20565   1.20754   1.20941   1.21007
 Alpha virt. eigenvalues --    1.21333   1.21636   1.22152   1.22524   1.22648
 Alpha virt. eigenvalues --    1.22782   1.23892   1.24243   1.24943   1.25152
 Alpha virt. eigenvalues --    1.25813   1.26023   1.26196   1.26935   1.27516
 Alpha virt. eigenvalues --    1.27723   1.27765   1.28363   1.28441   1.29080
 Alpha virt. eigenvalues --    1.29258   1.29375   1.29926   1.29929   1.30990
 Alpha virt. eigenvalues --    1.31121   1.31461   1.31768   1.31778   1.31897
 Alpha virt. eigenvalues --    1.32305   1.32367   1.32440   1.33169   1.33526
 Alpha virt. eigenvalues --    1.33842   1.34125   1.34177   1.34458   1.35289
 Alpha virt. eigenvalues --    1.35720   1.36222   1.36396   1.36752   1.36909
 Alpha virt. eigenvalues --    1.37177   1.37228   1.37770   1.38161   1.38590
 Alpha virt. eigenvalues --    1.38772   1.39365   1.39439   1.40134   1.40332
 Alpha virt. eigenvalues --    1.40439   1.40568   1.41418   1.41796   1.42386
 Alpha virt. eigenvalues --    1.43155   1.43802   1.44364   1.44409   1.44528
 Alpha virt. eigenvalues --    1.44615   1.45207   1.45683   1.46396   1.46769
 Alpha virt. eigenvalues --    1.46937   1.47121   1.47156   1.47806   1.48248
 Alpha virt. eigenvalues --    1.49344   1.49427   1.49757   1.49937   1.50226
 Alpha virt. eigenvalues --    1.50620   1.51112   1.51244   1.51829   1.51884
 Alpha virt. eigenvalues --    1.52555   1.52611   1.52786   1.53599   1.53908
 Alpha virt. eigenvalues --    1.53969   1.54055   1.54706   1.55210   1.55960
 Alpha virt. eigenvalues --    1.56828   1.57582   1.57632   1.58237   1.60228
 Alpha virt. eigenvalues --    1.60544   1.60860   1.61062   1.61115   1.61759
 Alpha virt. eigenvalues --    1.63100   1.63349   1.63504   1.64001   1.64885
 Alpha virt. eigenvalues --    1.64939   1.66446   1.67432   1.67444   1.67915
 Alpha virt. eigenvalues --    1.67941   1.69133   1.69965   1.70237   1.70403
 Alpha virt. eigenvalues --    1.70571   1.71064   1.71774   1.72046   1.73140
 Alpha virt. eigenvalues --    1.73495   1.73740   1.73998   1.74378   1.74381
 Alpha virt. eigenvalues --    1.75252   1.75560   1.75712   1.76240   1.76653
 Alpha virt. eigenvalues --    1.76887   1.78259   1.78477   1.79271   1.80899
 Alpha virt. eigenvalues --    1.82522   1.82573   1.83573   1.84098   1.84170
 Alpha virt. eigenvalues --    1.84728   1.86405   1.87873   1.88136   1.88139
 Alpha virt. eigenvalues --    1.88687   1.89207   1.89774   1.90103   1.91295
 Alpha virt. eigenvalues --    1.91504   1.92032   1.92057   1.94902   1.95226
 Alpha virt. eigenvalues --    1.95860   1.97305   1.97890   1.97918   1.99364
 Alpha virt. eigenvalues --    1.99730   1.99834   2.00456   2.02499   2.02733
 Alpha virt. eigenvalues --    2.03531   2.05810   2.07006   2.07444   2.07971
 Alpha virt. eigenvalues --    2.08430   2.08781   2.09930   2.10146   2.11807
 Alpha virt. eigenvalues --    2.12583   2.14395   2.15013   2.15500   2.16501
 Alpha virt. eigenvalues --    2.18689   2.19754   2.21338   2.21620   2.22268
 Alpha virt. eigenvalues --    2.23448   2.23734   2.26054   2.29058   2.29840
 Alpha virt. eigenvalues --    2.30406   2.30677   2.31232   2.32772   2.35576
 Alpha virt. eigenvalues --    2.35887   2.36305   2.36890   2.37582   2.39209
 Alpha virt. eigenvalues --    2.40334   2.42450   2.45051   2.45236   2.46902
 Alpha virt. eigenvalues --    2.47837   2.51344   2.54743   2.56593   2.59848
 Alpha virt. eigenvalues --    2.60173   2.60590   2.61456   2.62921   2.63349
 Alpha virt. eigenvalues --    2.63454   2.64500   2.66789   2.66793   2.67630
 Alpha virt. eigenvalues --    2.67794   2.69652   2.70025   2.70338   2.70737
 Alpha virt. eigenvalues --    2.70880   2.71216   2.71429   2.72829   2.73660
 Alpha virt. eigenvalues --    2.74057   2.74062   2.74128   2.74716   2.76718
 Alpha virt. eigenvalues --    2.76776   2.76842   2.78234   2.78429   2.78864
 Alpha virt. eigenvalues --    2.79192   2.79771   2.79882   2.80286   2.80565
 Alpha virt. eigenvalues --    2.80623   2.81405   2.81451   2.82183   2.83125
 Alpha virt. eigenvalues --    2.83299   2.83892   2.84345   2.84852   2.86831
 Alpha virt. eigenvalues --    2.87283   2.87549   2.88659   2.88858   2.88988
 Alpha virt. eigenvalues --    2.90110   2.90298   2.90705   2.91237   2.91835
 Alpha virt. eigenvalues --    2.92008   2.92164   2.92488   2.93166   2.94321
 Alpha virt. eigenvalues --    2.94825   2.95443   2.95730   2.96021   2.96650
 Alpha virt. eigenvalues --    2.96740   2.97436   2.97987   2.99511   2.99592
 Alpha virt. eigenvalues --    3.01123   3.03045   3.05331   3.06587   3.06816
 Alpha virt. eigenvalues --    3.06851   3.07819   3.08390   3.08635   3.09385
 Alpha virt. eigenvalues --    3.09478   3.10294   3.11038   3.12329   3.12699
 Alpha virt. eigenvalues --    3.14104   3.14365   3.14701   3.16047   3.16410
 Alpha virt. eigenvalues --    3.16554   3.16563   3.17159   3.17654   3.17776
 Alpha virt. eigenvalues --    3.17802   3.17882   3.18217   3.18476   3.19599
 Alpha virt. eigenvalues --    3.19738   3.19881   3.20205   3.20846   3.20878
 Alpha virt. eigenvalues --    3.21069   3.22095   3.22214   3.22682   3.23175
 Alpha virt. eigenvalues --    3.23657   3.23913   3.24172   3.24939   3.25456
 Alpha virt. eigenvalues --    3.25517   3.26026   3.26201   3.26837   3.27344
 Alpha virt. eigenvalues --    3.27517   3.28188   3.28420   3.28427   3.28614
 Alpha virt. eigenvalues --    3.29703   3.29748   3.30020   3.30170   3.30504
 Alpha virt. eigenvalues --    3.31183   3.32338   3.32358   3.32667   3.33994
 Alpha virt. eigenvalues --    3.34158   3.34236   3.34242   3.35580   3.35696
 Alpha virt. eigenvalues --    3.36149   3.36905   3.37025   3.37512   3.38289
 Alpha virt. eigenvalues --    3.38406   3.38671   3.39023   3.39585   3.40912
 Alpha virt. eigenvalues --    3.41220   3.41977   3.42540   3.42905   3.43298
 Alpha virt. eigenvalues --    3.44134   3.44489   3.45162   3.45687   3.46525
 Alpha virt. eigenvalues --    3.46533   3.47157   3.48393   3.48639   3.48848
 Alpha virt. eigenvalues --    3.48900   3.50258   3.50890   3.51396   3.52054
 Alpha virt. eigenvalues --    3.52918   3.52927   3.53769   3.53791   3.54133
 Alpha virt. eigenvalues --    3.54920   3.56125   3.56298   3.56945   3.57100
 Alpha virt. eigenvalues --    3.57612   3.57666   3.58231   3.58603   3.58660
 Alpha virt. eigenvalues --    3.59268   3.59354   3.59481   3.60196   3.60467
 Alpha virt. eigenvalues --    3.60787   3.61131   3.61363   3.62349   3.62411
 Alpha virt. eigenvalues --    3.62569   3.62975   3.63001   3.64056   3.64121
 Alpha virt. eigenvalues --    3.64216   3.64281   3.64334   3.64796   3.64885
 Alpha virt. eigenvalues --    3.65038   3.65390   3.65462   3.65691   3.66652
 Alpha virt. eigenvalues --    3.66876   3.66959   3.67736   3.67969   3.68140
 Alpha virt. eigenvalues --    3.68808   3.68887   3.69529   3.69688   3.70099
 Alpha virt. eigenvalues --    3.70346   3.70578   3.71315   3.71604   3.71767
 Alpha virt. eigenvalues --    3.72122   3.72759   3.72831   3.72967   3.73094
 Alpha virt. eigenvalues --    3.73172   3.73843   3.74316   3.74862   3.74916
 Alpha virt. eigenvalues --    3.74940   3.75914   3.76453   3.76474   3.77128
 Alpha virt. eigenvalues --    3.77353   3.77485   3.77531   3.77617   3.78327
 Alpha virt. eigenvalues --    3.79766   3.79778   3.79830   3.80719   3.80927
 Alpha virt. eigenvalues --    3.81581   3.82258   3.82531   3.82839   3.83415
 Alpha virt. eigenvalues --    3.83494   3.83666   3.84376   3.84667   3.85134
 Alpha virt. eigenvalues --    3.85299   3.85865   3.86017   3.86368   3.86870
 Alpha virt. eigenvalues --    3.86981   3.87370   3.87543   3.89403   3.89493
 Alpha virt. eigenvalues --    3.89704   3.89864   3.90258   3.91108   3.92082
 Alpha virt. eigenvalues --    3.92831   3.93416   3.93584   3.94073   3.94151
 Alpha virt. eigenvalues --    3.94291   3.94682   3.94777   3.96603   3.97206
 Alpha virt. eigenvalues --    3.98027   3.98436   3.98487   3.98900   3.99684
 Alpha virt. eigenvalues --    4.00213   4.00417   4.00561   4.00920   4.00943
 Alpha virt. eigenvalues --    4.01109   4.02083   4.02162   4.02319   4.02581
 Alpha virt. eigenvalues --    4.02625   4.03110   4.04056   4.04834   4.05785
 Alpha virt. eigenvalues --    4.05825   4.05978   4.06430   4.08149   4.09147
 Alpha virt. eigenvalues --    4.09747   4.09778   4.10143   4.11586   4.11873
 Alpha virt. eigenvalues --    4.11991   4.13604   4.13890   4.14786   4.15378
 Alpha virt. eigenvalues --    4.16169   4.16301   4.17266   4.18582   4.20063
 Alpha virt. eigenvalues --    4.21904   4.22202   4.22928   4.24688   4.26869
 Alpha virt. eigenvalues --    4.27045   4.27112   4.27788   4.29320   4.30666
 Alpha virt. eigenvalues --    4.30867   4.32262   4.32820   4.34819   4.37621
 Alpha virt. eigenvalues --    4.38070   4.38736   4.40819   4.42574   4.42657
 Alpha virt. eigenvalues --    4.43907   4.45260   4.48606   4.49360   4.50601
 Alpha virt. eigenvalues --    4.55487   4.56169   4.57437   4.59094   4.59294
 Alpha virt. eigenvalues --    4.64032   4.64955   4.65300   4.65744   4.66780
 Alpha virt. eigenvalues --    4.70775   4.72403   4.72430   4.74210   4.75691
 Alpha virt. eigenvalues --    4.75766   4.76353   4.80147   4.82776   4.83867
 Alpha virt. eigenvalues --    4.84262   4.87604   4.97495   4.97523   5.08391
 Alpha virt. eigenvalues --    5.11422   5.14086   5.17472   5.20041   5.33495
 Alpha virt. eigenvalues --    5.35185   5.35220   5.35278   5.35482   5.36297
 Alpha virt. eigenvalues --    5.38872   5.39732   5.39918   5.41000  23.67889
 Alpha virt. eigenvalues --   23.81885  23.85007  23.86979  23.99055  24.01188
 Alpha virt. eigenvalues --   24.07018  24.07932  24.08644  24.09361  24.10365
 Alpha virt. eigenvalues --   24.10811  24.13261  24.13604  24.13759  24.15019
 Alpha virt. eigenvalues --   24.15726  24.16771  24.17832  24.19512  24.19745
 Alpha virt. eigenvalues --   24.19959  24.22557  24.24459  24.24565  24.25757
 Alpha virt. eigenvalues --   24.28455  24.29239  24.32888  24.33041  24.38968
 Alpha virt. eigenvalues --   24.39621  24.41525  24.41977  24.42571  24.43591
 Alpha virt. eigenvalues --   24.47263  24.48208  24.53554  24.57283  24.61352
 Alpha virt. eigenvalues --   24.69090
          Condensed to atoms (all electrons):
 Mulliken charges:
               1
     1  C   -0.470469
     2  C    0.378570
     3  C    0.515580
     4  C   -0.244807
     5  C   -0.090618
     6  C   -0.331182
     7  C   -0.483418
     8  C   -0.474074
     9  C    0.321585
    10  C    0.128004
    11  C    0.321846
    12  C    0.127649
    13  C    0.177520
    14  C    0.177273
    15  C    0.127807
    16  C    0.321457
    17  C    0.321295
    18  C    0.128103
    19  C   -0.473716
    20  C   -0.483182
    21  C    0.515071
    22  C    0.378483
    23  C   -0.245316
    24  C   -0.090313
    25  C   -0.330824
    26  C   -0.470683
    27  H    0.105320
    28  H    0.146682
    29  H    0.146670
    30  H    0.105317
    31  H    0.105569
    32  H    0.102937
    33  H    0.101513
    34  H    0.100237
    35  C    0.378579
    36  C    0.378558
    37  H    0.100284
    38  H    0.101522
    39  H    0.102938
    40  H    0.105571
    41  C    0.515393
    42  C   -0.244801
    43  C   -0.090597
    44  C   -0.331046
    45  C   -0.470437
    46  C   -0.483414
    47  H    0.102939
    48  H    0.105572
    49  H    0.105321
    50  H    0.146706
    51  C   -0.474141
    52  H    0.101528
    53  H    0.100291
    54  C    0.514910
    55  C   -0.245290
    56  C   -0.090313
    57  C   -0.330766
    58  C   -0.470676
    59  C   -0.483082
    60  H    0.102937
    61  H    0.105570
    62  H    0.105317
    63  H    0.146686
    64  C   -0.473691
    65  H    0.101514
    66  H    0.100230
 Sum of Mulliken charges =   0.00000
 Mulliken charges with hydrogens summed into heavy atoms:
               1
     1  C   -0.323787
     2  C    0.378570
     3  C    0.515580
     4  C   -0.141869
     5  C    0.014953
     6  C   -0.225861
     7  C   -0.381895
     8  C   -0.373789
     9  C    0.321585
    10  C    0.128004
    11  C    0.321846
    12  C    0.127649
    13  C    0.177520
    14  C    0.177273
    15  C    0.127807
    16  C    0.321457
    17  C    0.321295
    18  C    0.128103
    19  C   -0.373480
    20  C   -0.381669
    21  C    0.515071
    22  C    0.378483
    23  C   -0.142379
    24  C    0.015256
    25  C   -0.225507
    26  C   -0.324013
    35  C    0.378579
    36  C    0.378558
    41  C    0.515393
    42  C   -0.141862
    43  C    0.014975
    44  C   -0.225725
    45  C   -0.323731
    46  C   -0.381886
    51  C   -0.373850
    54  C    0.514910
    55  C   -0.142353
    56  C    0.015258
    57  C   -0.225449
    58  C   -0.323990
    59  C   -0.381568
    64  C   -0.373461
 Electronic spatial extent (au):  <R**2>=          18334.4331
 Charge=              0.0000 electrons
 Dipole moment (field-independent basis, Debye):
    X=             -0.0001    Y=              0.0000    Z=              0.0001  Tot=              0.0001
 Quadrupole moment (field-independent basis, Debye-Ang):
   XX=           -216.1476   YY=           -210.5749   ZZ=           -243.2754
   XY=             -0.0001   XZ=              0.0001   YZ=             -0.0016
 Traceless Quadrupole moment (field-independent basis, Debye-Ang):
   XX=              7.1850   YY=             12.7577   ZZ=            -19.9428
   XY=             -0.0001   XZ=              0.0001   YZ=             -0.0016
 Octapole moment (field-independent basis, Debye-Ang**2):
  XXX=              0.0085  YYY=              0.0134  ZZZ=             -0.0004  XYY=              0.0013
  XXY=              0.0348  XXZ=             -0.0004  XZZ=             -0.0075  YZZ=             -0.0406
  YYZ=              0.0044  XYZ=             34.8954
 Hexadecapole moment (field-independent basis, Debye-Ang**3):
 XXXX=         -13892.1706 YYYY=          -6591.5938 ZZZZ=          -4169.5652 XXXY=             -0.0007
 XXXZ=             -0.0263 YYYX=              0.0001 YYYZ=             -0.0260 ZZZX=              0.0948
 ZZZY=             -0.0244 XXYY=          -3365.9121 XXZZ=          -2723.3257 YYZZ=          -1877.5653
 XXYZ=              0.0046 YYXZ=             -0.0988 ZZXY=              0.0055
 N-N= 4.544351016944D+03 E-N=-1.283478052544D+04  KE= 1.606979874442D+03
 Leave Link  601 at Thu Oct 21 00:50:08 2021, MaxMem=  1610612736 cpu:        24.2
 (Enter /applis/g09/l9999.exe)
 1\1\GINC-MOLTECH-CALC01\SP\RPBE1PBE TD-FC\Gen\C42H24\DOMINIQUE\21-Oct-
 2021\0\\#p PBE1PBE chkbasis guess=read geom=allcheck TD=(nstates=30) G
 fprint\\Helicene M Fondamental state form\\0,1\C,0,6.2183983615,-5.216
 4654249,-1.3412321447\C,0,5.5258975886,-5.779861513,-2.43470765\C,0,4.
 7345040755,-6.9292639758,-2.175517332\C,0,4.5748883679,-7.394775216,-0
 .8545754934\C,0,5.2184008734,-6.7872188326,0.1901189179\C,0,6.06967070
 15,-5.7032623766,-0.0670826903\C,0,4.1656199296,-7.6417886868,-3.26016
 96127\C,0,4.4208651907,-7.2733089371,-4.5396948071\C,0,5.1837924966,-6
 .1129164229,-4.8431483103\C,0,5.6584732255,-5.3064798782,-3.7972574613
 \C,0,5.4468053434,-5.7297850223,-6.2097930625\C,0,6.4174376006,-4.7521
 267283,-6.4773611878\C,0,7.1039543712,-4.1404078349,-5.3600119267\C,0,
 6.4245390719,-4.1254558272,-4.1324625798\C,0,8.4213890646,-3.542382334
 5,-5.3829811225\C,0,8.72021202,-2.5498163106,-4.4369061817\C,0,7.70622
 90525,-2.1390484235,-3.495317242\C,0,6.5596169267,-2.9306924174,-3.327
 4134704\C,0,7.8665721786,-0.965982399,-2.7086010376\C,0,6.9219285728,-
 0.5713881023,-1.8197587381\C,0,5.6932036146,-1.2690461614,-1.713227029
 1\C,0,5.4805178099,-2.4307862233,-2.5004318616\C,0,4.663555961,-0.7774
 921976,-0.8854515802\C,0,3.4302653668,-1.3718355724,-0.8652594743\C,0,
 3.1848428791,-2.4687846874,-1.7032427295\C,0,4.1804242514,-2.980656028
 9,-2.4965791897\H,0,6.6251431567,-5.2475687391,0.7454272044\H,0,6.8993
 276116,-4.3932829161,-1.5052210362\H,0,3.9492719777,-3.8135090768,-3.1
 455201958\H,0,2.1966526923,-2.9147557134,-1.7343667041\H,0,2.641892545
 4,-0.9819725459,-0.2306636533\H,0,4.8629876414,0.1014899696,-0.2801504
 504\H,0,7.0716594472,0.3193605544,-1.2178671642\H,0,8.7564320787,-0.36
 1835011,-2.823555243\C,0,9.4884548562,-4.057021559,-6.2164679629\C,0,6
 .5619712106,-4.2639672892,-7.8334430257\H,0,4.0401557717,-7.8889244954
 ,-5.3435254167\H,0,3.5677201442,-8.5231928865,-3.0509624839\H,0,3.9474
 053819,-8.2646138124,-0.6859983607\H,0,5.0953485366,-7.1570962832,1.20
 21880393\C,0,5.8814388444,-4.9312317234,-8.8852311684\C,0,6.0247725139
 ,-4.4857421298,-10.2149211281\C,0,6.7717499229,-3.3770949636,-10.51086
 98623\C,0,7.3783975652,-2.6618352944,-9.4686791323\C,0,7.2748416444,-3
 .0930047006,-8.1702448177\C,0,5.0054817593,-6.001989933,-8.5786395772\
 H,0,5.5075153959,-5.028831675,-10.9999480743\H,0,6.8701101226,-3.03750
 42047,-11.5361667423\H,0,7.9287051236,-1.7527520501,-9.6857413212\H,0,
 7.7375011719,-2.5047037855,-7.3904730488\C,0,4.7652564584,-6.352090469
 1,-7.2910566986\H,0,4.485020796,-6.500807405,-9.390075057\H,0,4.027447
 6839,-7.116990924,-7.0895113332\C,0,10.7476637419,-3.4020981442,-6.211
 1828262\C,0,11.7934842903,-3.873748166,-7.0302130723\C,0,11.6362084801
 ,-4.995695237,-7.7990879936\C,0,10.4238533198,-5.6979221663,-7.7460183
 504\C,0,9.3832472641,-5.2416065993,-6.9769280591\C,0,10.9638174615,-2.
 3163430597,-5.326721968\H,0,12.7388150524,-3.3398970289,-7.0191314298\
 H,0,12.4491222299,-5.3553469242,-8.4204233276\H,0,10.3062562786,-6.616
 7016971,-8.3102837086\H,0,8.4708732058,-5.8201063354,-6.9436769272\C,0
 ,10.0042802737,-1.9401253973,-4.4458960085\H,0,11.9324985239,-1.826664
 2174,-5.3264488704\H,0,10.2331209274,-1.1634564297,-3.7286290461\\Vers
 ion=EM64L-G09RevD.01\State=1-A\HF=-1613.4956913\RMSD=4.631e-09\PG=C01 
 [X(C42H24)]\\@


 IF AT FIRST YOU DON'T SUCCEED, TRY, TRY AGAIN.
 THEN GIVE UP;
 THERE'S NO USE BEING A DAMN FOOL ABOUT IT.

                                 -- W. C. FIELDS
 Job cpu time:       5 days 19 hours 25 minutes  2.1 seconds.
 File lengths (MBytes):  RWF=   6555 Int=      0 D2E=      0 Chk=   1428 Scr=      1
 Normal termination of Gaussian 09 at Thu Oct 21 00:50:23 2021.
